# Probe 0 (0.58 0.002 0.176)
# Probe 1 (0.58 0 0.176)
# Probe 2 (0.599429 0.002 0.176)
# Probe 3 (0.599429 0 0.176)
# Probe 4 (0.618857 0.002 0.176)
# Probe 5 (0.618857 0 0.176)
# Probe 6 (0.638286 0.002 0.176)
# Probe 7 (0.638286 0 0.176)
# Probe 8 (0.657714 0.002 0.176)
# Probe 9 (0.657714 0 0.176)
# Probe 10 (0.677143 0.002 0.176)
# Probe 11 (0.677143 0 0.176)
# Probe 12 (0.696571 0.002 0.176)
# Probe 13 (0.696571 0 0.176)
# Probe 14 (0.716 0.002 0.176)
# Probe 15 (0.716 0 0.176)
# Probe 16 (0.716 0.002 0.146667)
# Probe 17 (0.716 0 0.146667)
# Probe 18 (0.716 0.002 0.117333)
# Probe 19 (0.716 0 0.117333)
# Probe 20 (0.716 0.002 0.088)
# Probe 21 (0.716 0 0.088)
# Probe 22 (0.716 0.002 0.0586667)
# Probe 23 (0.716 0 0.0586667)
# Probe 24 (0.716 0.002 0.0293333)
# Probe 25 (0.716 0 0.0293333)
# Probe 26 (0.716 0.002 0)
# Probe 27 (0.716 0 0)
# Probe 28 (0.685143 0.002 0)
# Probe 29 (0.685143 0 0)
# Probe 30 (0.654286 0.002 0)
# Probe 31 (0.654286 0 0)
# Probe 32 (0.623429 0.002 0)
# Probe 33 (0.623429 0 0)
# Probe 34 (0.592571 0.002 0)
# Probe 35 (0.592571 0 0)
# Probe 36 (0.561714 0.002 0)
# Probe 37 (0.561714 0 0)
# Probe 38 (0.530857 0.002 0)
# Probe 39 (0.530857 0 0)
# Probe 40 (0.5 0.002 0)
# Probe 41 (0.5 0 0)
# Probe 42 (0.513333 0.002 0.0293333)
# Probe 43 (0.513333 0 0.0293333)
# Probe 44 (0.526667 0.002 0.0586667)
# Probe 45 (0.526667 0 0.0586667)
# Probe 46 (0.54 0.002 0.088)
# Probe 47 (0.54 0 0.088)
# Probe 48 (0.553333 0.002 0.117333)
# Probe 49 (0.553333 0 0.117333)
# Probe 50 (0.566667 0.002 0.146667)
# Probe 51 (0.566667 0 0.146667)
# Probe 52 (0.588 0.002 0.146667)
# Probe 53 (0.588 0 0.146667)
# Probe 54 (0.609333 0.002 0.146667)
# Probe 55 (0.609333 0 0.146667)
# Probe 56 (0.630667 0.002 0.146667)
# Probe 57 (0.630667 0 0.146667)
# Probe 58 (0.652 0.002 0.146667)
# Probe 59 (0.652 0 0.146667)
# Probe 60 (0.673333 0.002 0.146667)
# Probe 61 (0.673333 0 0.146667)
# Probe 62 (0.694667 0.002 0.146667)
# Probe 63 (0.694667 0 0.146667)
# Probe 64 (0.576571 0.002 0.117333)
# Probe 65 (0.576571 0 0.117333)
# Probe 66 (0.59981 0.002 0.117333)
# Probe 67 (0.59981 0 0.117333)
# Probe 68 (0.623048 0.002 0.117333)
# Probe 69 (0.623048 0 0.117333)
# Probe 70 (0.646286 0.002 0.117333)
# Probe 71 (0.646286 0 0.117333)
# Probe 72 (0.669524 0.002 0.117333)
# Probe 73 (0.669524 0 0.117333)
# Probe 74 (0.692762 0.002 0.117333)
# Probe 75 (0.692762 0 0.117333)
# Probe 76 (0.565143 0.002 0.088)
# Probe 77 (0.565143 0 0.088)
# Probe 78 (0.590286 0.002 0.088)
# Probe 79 (0.590286 0 0.088)
# Probe 80 (0.615429 0.002 0.088)
# Probe 81 (0.615429 0 0.088)
# Probe 82 (0.640571 0.002 0.088)
# Probe 83 (0.640571 0 0.088)
# Probe 84 (0.665714 0.002 0.088)
# Probe 85 (0.665714 0 0.088)
# Probe 86 (0.690857 0.002 0.088)
# Probe 87 (0.690857 0 0.088)
# Probe 88 (0.553714 0.002 0.0586667)
# Probe 89 (0.553714 0 0.0586667)
# Probe 90 (0.580762 0.002 0.0586667)
# Probe 91 (0.580762 0 0.0586667)
# Probe 92 (0.60781 0.002 0.0586667)
# Probe 93 (0.60781 0 0.0586667)
# Probe 94 (0.634857 0.002 0.0586667)
# Probe 95 (0.634857 0 0.0586667)
# Probe 96 (0.661905 0.002 0.0586667)
# Probe 97 (0.661905 0 0.0586667)
# Probe 98 (0.688952 0.002 0.0586667)
# Probe 99 (0.688952 0 0.0586667)
# Probe 100 (0.542286 0.002 0.0293333)
# Probe 101 (0.542286 0 0.0293333)
# Probe 102 (0.571238 0.002 0.0293333)
# Probe 103 (0.571238 0 0.0293333)
# Probe 104 (0.60019 0.002 0.0293333)
# Probe 105 (0.60019 0 0.0293333)
# Probe 106 (0.629143 0.002 0.0293333)
# Probe 107 (0.629143 0 0.0293333)
# Probe 108 (0.658095 0.002 0.0293333)
# Probe 109 (0.658095 0 0.0293333)
# Probe 110 (0.687048 0.002 0.0293333)
# Probe 111 (0.687048 0 0.0293333)
# Time        0             1             2             3             4             5             6             7             8             9             10            11            12            13            14            15            16            17            18            19            20            21            22            23            24            25            26            27            28            29            30            31            32            33            34            35            36            37            38            39            40            41            42            43            44            45            46            47            48            49            50            51            52            53            54            55            56            57            58            59            60            61            62            63            64            65            66            67            68            69            70            71            72            73            74            75            76            77            78            79            80            81            82            83            84            85            86            87            88            89            90            91            92            93            94            95            96            97            98            99            100           101           102           103           104           105           106           107           108           109           110           111          
0             101325        101325        101325        101325        101325        101325        101325        101325        101325        101325        101325        101325        101325        101325        101325        101325        101325        101325        101325        101325        101325        101325        101769        101325        101325        101325        101325        101325        101325        -1.79769e+307 101325        -1.79769e+307 101325        -1.79769e+307 101325        -1.79769e+307 101325        -1.79769e+307 101325        -1.79769e+307 101325        101325        101325        101325        101325        101325        101325        101325        101325        101325        101325        101325        101325        -1.79769e+307 101325        -1.79769e+307 101325        -1.79769e+307 101325        -1.79769e+307 101325        -1.79769e+307 101325        -1.79769e+307 101325        -1.79769e+307 101325        -1.79769e+307 101325        -1.79769e+307 101325        -1.79769e+307 101325        -1.79769e+307 101325        -1.79769e+307 101325        -1.79769e+307 101325        -1.79769e+307 101325        -1.79769e+307 101325        -1.79769e+307 101325        -1.79769e+307 101325        -1.79769e+307 101325        -1.79769e+307 101325        -1.79769e+307 101325        -1.79769e+307 101325        -1.79769e+307 101325        -1.79769e+307 101325        -1.79769e+307 101325        -1.79769e+307 101325        -1.79769e+307 101325        -1.79769e+307 101325        -1.79769e+307 101325        -1.79769e+307 101325        -1.79769e+307
0.0001        101749        101723        101327        101327        101325        101325        101325        101325        101325        101325        101325        101325        101329        101330        100670        100613        97669.5       95985.7       97794.9       96007.4       94931.8       96473.5       96676.1       96508.2       97810         96036.5       97269.3       97084.4       101333        -1.79769e+307 101325        -1.79769e+307 101325        -1.79769e+307 101325        -1.79769e+307 101325        -1.79769e+307 101326        -1.79769e+307 102142        102482        103362        103509        104688        103661        102850        103133        103352        103849        101864        102056        101325        -1.79769e+307 101325        -1.79769e+307 101325        -1.79769e+307 101325        -1.79769e+307 101325        -1.79769e+307 101330        -1.79769e+307 101332        -1.79769e+307 101325        -1.79769e+307 101325        -1.79769e+307 101325        -1.79769e+307 101325        -1.79769e+307 101327        -1.79769e+307 101425        -1.79769e+307 101324        -1.79769e+307 101325        -1.79769e+307 101325        -1.79769e+307 101325        -1.79769e+307 101352        -1.79769e+307 101350        -1.79769e+307 101325        -1.79769e+307 101325        -1.79769e+307 101325        -1.79769e+307 101325        -1.79769e+307 101339        -1.79769e+307 101327        -1.79769e+307 101325        -1.79769e+307 101325        -1.79769e+307 101325        -1.79769e+307 101325        -1.79769e+307 101326        -1.79769e+307
0.0002        102197        102157        101336        101341        101326        101326        101325        101325        101325        101325        101325        101325        101329        101331        100144        100037        94718         91525         94955.2       91582         89831.4       92470         92437.6       92490.4       94974.7       91645         93795.4       93464.2       101335        -1.79769e+307 101326        -1.79769e+307 101326        -1.79769e+307 101326        -1.79769e+307 101326        -1.79769e+307 101339        -1.79769e+307 102522        103369        105056        105064        107167        105462        103838        104452        104965        105722        102147        102297        101336        -1.79769e+307 101326        -1.79769e+307 101326        -1.79769e+307 101326        -1.79769e+307 101326        -1.79769e+307 101332        -1.79769e+307 101363        -1.79769e+307 101327        -1.79769e+307 101326        -1.79769e+307 101326        -1.79769e+307 101326        -1.79769e+307 101328        -1.79769e+307 101507        -1.79769e+307 101329        -1.79769e+307 101327        -1.79769e+307 101326        -1.79769e+307 101326        -1.79769e+307 101346        -1.79769e+307 101445        -1.79769e+307 101328        -1.79769e+307 101326        -1.79769e+307 101326        -1.79769e+307 101326        -1.79769e+307 101336        -1.79769e+307 101341        -1.79769e+307 101326        -1.79769e+307 101326        -1.79769e+307 101326        -1.79769e+307 101326        -1.79769e+307 101328        -1.79769e+307
0.0003        102595        102578        101360        101377        101328        101329        101326        101326        101325        101325        101325        101325        101328        101330        99793.1       99635.6       92968.1       88783.4       93273.6       88847.2       86897.1       90016.7       89867.7       90079.1       93270.9       88942.1       91599.6       91222.7       101335        -1.79769e+307 101327        -1.79769e+307 101327        -1.79769e+307 101327        -1.79769e+307 101328        -1.79769e+307 101365        -1.79769e+307 102692        104010        106233        106101        108754        106680        104512        105347        106046        106959        102426        102430        101362        -1.79769e+307 101328        -1.79769e+307 101327        -1.79769e+307 101327        -1.79769e+307 101327        -1.79769e+307 101330        -1.79769e+307 101424        -1.79769e+307 101330        -1.79769e+307 101327        -1.79769e+307 101327        -1.79769e+307 101327        -1.79769e+307 101329        -1.79769e+307 101509        -1.79769e+307 101341        -1.79769e+307 101328        -1.79769e+307 101327        -1.79769e+307 101327        -1.79769e+307 101326        -1.79769e+307 101566        -1.79769e+307 101337        -1.79769e+307 101327        -1.79769e+307 101327        -1.79769e+307 101327        -1.79769e+307 101324        -1.79769e+307 101380        -1.79769e+307 101328        -1.79769e+307 101327        -1.79769e+307 101327        -1.79769e+307 101327        -1.79769e+307 101329        -1.79769e+307
0.0004        102930        102963        101395        101438        101334        101337        101326        101326        101326        101326        101326        101326        101326        101327        99553.4       99343.5       91879.5       87115.8       92206.6       87172.6       85164.8       88513.8       88278.1       88610         92173.6       87303.2       90216.5       89830.2       101331        -1.79769e+307 101328        -1.79769e+307 101328        -1.79769e+307 101328        -1.79769e+307 101330        -1.79769e+307 101374        -1.79769e+307 102767        104466        107137        106919        109864        107578        105099        106094        106863        107921        102822        102747        101395        -1.79769e+307 101333        -1.79769e+307 101328        -1.79769e+307 101328        -1.79769e+307 101328        -1.79769e+307 101323        -1.79769e+307 101506        -1.79769e+307 101337        -1.79769e+307 101328        -1.79769e+307 101327        -1.79769e+307 101328        -1.79769e+307 101329        -1.79769e+307 101307        -1.79769e+307 101360        -1.79769e+307 101329        -1.79769e+307 101328        -1.79769e+307 101328        -1.79769e+307 101298        -1.79769e+307 101599        -1.79769e+307 101359        -1.79769e+307 101329        -1.79769e+307 101328        -1.79769e+307 101328        -1.79769e+307 101309        -1.79769e+307 101449        -1.79769e+307 101332        -1.79769e+307 101328        -1.79769e+307 101328        -1.79769e+307 101327        -1.79769e+307 101329        -1.79769e+307
0.0005        103210        103308        101435        101513        101347        101352        101328        101328        101326        101326        101326        101326        101322        101324        99371.9       99121.8       91166.5       86087.3       91498.4       86157.9       84105.7       87583.5       87266.8       87683.6       91426.3       86310.4       89326.6       88947.3       101325        -1.79769e+307 101328        -1.79769e+307 101328        -1.79769e+307 101328        -1.79769e+307 101333        -1.79769e+307 101317        -1.79769e+307 102858        104822        107866        107567        110740        108316        105682        106794        107536        108715        103249        103092        101427        -1.79769e+307 101343        -1.79769e+307 101329        -1.79769e+307 101328        -1.79769e+307 101328        -1.79769e+307 101317        -1.79769e+307 101590        -1.79769e+307 101352        -1.79769e+307 101329        -1.79769e+307 101328        -1.79769e+307 101328        -1.79769e+307 101327        -1.79769e+307 100798        -1.79769e+307 101380        -1.79769e+307 101332        -1.79769e+307 101328        -1.79769e+307 101328        -1.79769e+307 101273        -1.79769e+307 101395        -1.79769e+307 101399        -1.79769e+307 101331        -1.79769e+307 101328        -1.79769e+307 101328        -1.79769e+307 101296        -1.79769e+307 101544        -1.79769e+307 101340        -1.79769e+307 101328        -1.79769e+307 101328        -1.79769e+307 101328        -1.79769e+307 101328        -1.79769e+307
0.0006        103453        103621        101467        101578        101365        101375        101331        101332        101326        101326        101326        101326        101319        101320        99224.3       98944.7       90677.6       85443.2       91007.8       85523.9       83433.2       86988.1       86656.7       87103         90895.9       85692.3       88740.3       88371.2       101316        -1.79769e+307 101328        -1.79769e+307 101328        -1.79769e+307 101329        -1.79769e+307 101338        -1.79769e+307 101157        -1.79769e+307 102921        105088        108482        108176        111476        108965        106319        107479        108115        109411        103733        103547        101444        -1.79769e+307 101359        -1.79769e+307 101331        -1.79769e+307 101328        -1.79769e+307 101328        -1.79769e+307 101314        -1.79769e+307 101657        -1.79769e+307 101376        -1.79769e+307 101332        -1.79769e+307 101328        -1.79769e+307 101328        -1.79769e+307 101323        -1.79769e+307 99951.3       -1.79769e+307 101393        -1.79769e+307 101337        -1.79769e+307 101328        -1.79769e+307 101328        -1.79769e+307 101239        -1.79769e+307 100852        -1.79769e+307 101455        -1.79769e+307 101337        -1.79769e+307 101328        -1.79769e+307 101328        -1.79769e+307 101280        -1.79769e+307 101651        -1.79769e+307 101358        -1.79769e+307 101329        -1.79769e+307 101328        -1.79769e+307 101328        -1.79769e+307 101327        -1.79769e+307
0.0007        103671        103902        101478        101609        101386        101401        101337        101339        101327        101327        101326        101326        101316        101317        99107.6       98804         90357.4       85058.3       90666.6       85135.2       83005.8       86610.3       86268.8       86741.3       90523.2       85317.8       88365.1       88017.4       101307        -1.79769e+307 101328        -1.79769e+307 101328        -1.79769e+307 101329        -1.79769e+307 101344        -1.79769e+307 100871        -1.79769e+307 103022        105318        109039        108784        112120        109556        107018        108157        108619        110027        104265        104125        101434        -1.79769e+307 101381        -1.79769e+307 101335        -1.79769e+307 101328        -1.79769e+307 101328        -1.79769e+307 101311        -1.79769e+307 101697        -1.79769e+307 101406        -1.79769e+307 101338        -1.79769e+307 101328        -1.79769e+307 101328        -1.79769e+307 101318        -1.79769e+307 98827.8       -1.79769e+307 101383        -1.79769e+307 101345        -1.79769e+307 101329        -1.79769e+307 101328        -1.79769e+307 101209        -1.79769e+307 99967.1       -1.79769e+307 101512        -1.79769e+307 101348        -1.79769e+307 101329        -1.79769e+307 101328        -1.79769e+307 101258        -1.79769e+307 101765        -1.79769e+307 101388        -1.79769e+307 101332        -1.79769e+307 101328        -1.79769e+307 101328        -1.79769e+307 101324        -1.79769e+307
0.0008        103871        104157        101462        101591        101404        101420        101346        101349        101329        101329        101326        101326        101313        101313        99010.1       98686.8       90129.2       84809.2       90412.6       84875.8       82709         86353.9       86005         86500         90234.4       85070         88118.5       87799.5       101298        -1.79769e+307 101327        -1.79769e+307 101328        -1.79769e+307 101330        -1.79769e+307 101350        -1.79769e+307 100474        -1.79769e+307 103161        105546        109564        109385        112699        110084        107719        108812        109082        110591        104795        104738        101389        -1.79769e+307 101403        -1.79769e+307 101341        -1.79769e+307 101329        -1.79769e+307 101327        -1.79769e+307 101307        -1.79769e+307 101712        -1.79769e+307 101439        -1.79769e+307 101347        -1.79769e+307 101329        -1.79769e+307 101328        -1.79769e+307 101312        -1.79769e+307 97534.3       -1.79769e+307 101336        -1.79769e+307 101357        -1.79769e+307 101331        -1.79769e+307 101327        -1.79769e+307 101176        -1.79769e+307 98834.4       -1.79769e+307 101547        -1.79769e+307 101367        -1.79769e+307 101330        -1.79769e+307 101327        -1.79769e+307 101232        -1.79769e+307 101877        -1.79769e+307 101431        -1.79769e+307 101337        -1.79769e+307 101328        -1.79769e+307 101327        -1.79769e+307 101321        -1.79769e+307
0.0009        104067        104401        101414        101517        101410        101423        101356        101361        101332        101333        101326        101326        101309        101310        98924.1       98585.5       89952.1       84624.3       90197.8       84673.2       82467.9       86149.8       85790.2       86303.9       90004.3       84882.1       87920.3       87627.7       101287        -1.79769e+307 101327        -1.79769e+307 101327        -1.79769e+307 101332        -1.79769e+307 101354        -1.79769e+307 100001        -1.79769e+307 103321        105770        110046        109938        113226        110556        108364        109412        109505        111099        105279        105311        101303        -1.79769e+307 101422        -1.79769e+307 101350        -1.79769e+307 101331        -1.79769e+307 101327        -1.79769e+307 101303        -1.79769e+307 101711        -1.79769e+307 101466        -1.79769e+307 101360        -1.79769e+307 101331        -1.79769e+307 101327        -1.79769e+307 101305        -1.79769e+307 96212.9       -1.79769e+307 101245        -1.79769e+307 101372        -1.79769e+307 101334        -1.79769e+307 101327        -1.79769e+307 101144        -1.79769e+307 97608.6       -1.79769e+307 101542        -1.79769e+307 101395        -1.79769e+307 101333        -1.79769e+307 101327        -1.79769e+307 101201        -1.79769e+307 101982        -1.79769e+307 101487        -1.79769e+307 101347        -1.79769e+307 101328        -1.79769e+307 101327        -1.79769e+307 101316        -1.79769e+307
0.001         104256        104638        101337        101398        101396        101400        101367        101373        101336        101337        101327        101327        101304        101305        98847         98497.7       89813.1       84481.2       90025.9       84516.5       82274.8       85982.8       85614.2       86148.5       89812.1       84727.7       87767.2       87496.8       101273        -1.79769e+307 101327        -1.79769e+307 101328        -1.79769e+307 101336        -1.79769e+307 101356        -1.79769e+307 99507.3       -1.79769e+307 103483        105972        110485        110453        113698        110982        108964        109965        109884        111546        105722        105853        101179        -1.79769e+307 101429        -1.79769e+307 101361        -1.79769e+307 101333        -1.79769e+307 101327        -1.79769e+307 101299        -1.79769e+307 101698        -1.79769e+307 101482        -1.79769e+307 101377        -1.79769e+307 101335        -1.79769e+307 101328        -1.79769e+307 101298        -1.79769e+307 94969.9       -1.79769e+307 101089        -1.79769e+307 101389        -1.79769e+307 101339        -1.79769e+307 101327        -1.79769e+307 101115        -1.79769e+307 96422.2       -1.79769e+307 101473        -1.79769e+307 101430        -1.79769e+307 101339        -1.79769e+307 101327        -1.79769e+307 101167        -1.79769e+307 102076        -1.79769e+307 101550        -1.79769e+307 101364        -1.79769e+307 101329        -1.79769e+307 101327        -1.79769e+307 101310        -1.79769e+307
0.0011        104435        104849        101234        101244        101359        101350        101375        101380        101342        101344        101328        101328        101302        101303        98775.3       98417.9       89707.7       84371.9       89887.7       84394.8       82125.5       85846.9       85462.7       86016.1       89654         84600.9       87642.6       87390.4       101257        -1.79769e+307 101327        -1.79769e+307 101328        -1.79769e+307 101342        -1.79769e+307 101357        -1.79769e+307 99046.6       -1.79769e+307 103633        106152        110873        110918        114107        111356        109521        110470        110216        111928        106126        106351        101017        -1.79769e+307 101423        -1.79769e+307 101372        -1.79769e+307 101338        -1.79769e+307 101327        -1.79769e+307 101294        -1.79769e+307 101680        -1.79769e+307 101482        -1.79769e+307 101396        -1.79769e+307 101341        -1.79769e+307 101328        -1.79769e+307 101290        -1.79769e+307 93867.2       -1.79769e+307 100927        -1.79769e+307 101407        -1.79769e+307 101346        -1.79769e+307 101328        -1.79769e+307 101089        -1.79769e+307 95370.2       -1.79769e+307 101342        -1.79769e+307 101467        -1.79769e+307 101349        -1.79769e+307 101328        -1.79769e+307 101133        -1.79769e+307 102156        -1.79769e+307 101611        -1.79769e+307 101389        -1.79769e+307 101332        -1.79769e+307 101327        -1.79769e+307 101303        -1.79769e+307
0.0012        104600        105043        101112        101070        101300        101274        101376        101380        101349        101351        101329        101330        101296        101298        98709.2       98345.3       89629.1       84289.9       89778.7       84304.1       82016.6       85741.9       85320.1       85891.4       89529.1       84503.7       87536.9       87298.2       101243        -1.79769e+307 101327        -1.79769e+307 101329        -1.79769e+307 101353        -1.79769e+307 101363        -1.79769e+307 98666.5       -1.79769e+307 103775        106324        111223        111335        114452        111682        110015        110914        110507        112253        106518        106866        100823        -1.79769e+307 101401        -1.79769e+307 101381        -1.79769e+307 101344        -1.79769e+307 101327        -1.79769e+307 101288        -1.79769e+307 101654        -1.79769e+307 101462        -1.79769e+307 101415        -1.79769e+307 101350        -1.79769e+307 101329        -1.79769e+307 101283        -1.79769e+307 92921.7       -1.79769e+307 100792        -1.79769e+307 101424        -1.79769e+307 101358        -1.79769e+307 101329        -1.79769e+307 101064        -1.79769e+307 94491.2       -1.79769e+307 101177        -1.79769e+307 101501        -1.79769e+307 101363        -1.79769e+307 101329        -1.79769e+307 101101        -1.79769e+307 102219        -1.79769e+307 101664        -1.79769e+307 101422        -1.79769e+307 101337        -1.79769e+307 101327        -1.79769e+307 101296        -1.79769e+307
0.0013        104753        105218        100978        100884        101224        101181        101369        101370        101356        101359        101332        101333        101294        101295        98646.6       98278.1       89568.3       84225.2       89696.5       84241.9       81934.3       85658.4       85186.5       85770.5       89431.3       84432.6       87434.8       87206.4       101232        -1.79769e+307 101327        -1.79769e+307 101332        -1.79769e+307 101368        -1.79769e+307 101382        -1.79769e+307 98391.2       -1.79769e+307 103892        106467        111533        111692        114745        111965        110446        111299        110761        112528        106844        107280        100602        -1.79769e+307 101352        -1.79769e+307 101388        -1.79769e+307 101351        -1.79769e+307 101329        -1.79769e+307 101282        -1.79769e+307 101612        -1.79769e+307 101421        -1.79769e+307 101432        -1.79769e+307 101361        -1.79769e+307 101332        -1.79769e+307 101277        -1.79769e+307 92128.9       -1.79769e+307 100698        -1.79769e+307 101435        -1.79769e+307 101373        -1.79769e+307 101332        -1.79769e+307 101039        -1.79769e+307 93793         -1.79769e+307 101000        -1.79769e+307 101524        -1.79769e+307 101382        -1.79769e+307 101332        -1.79769e+307 101070        -1.79769e+307 102261        -1.79769e+307 101703        -1.79769e+307 101462        -1.79769e+307 101346        -1.79769e+307 101328        -1.79769e+307 101289        -1.79769e+307
0.0014        104892        105375        100836        100694        101138        101083        101354        101351        101362        101365        101336        101337        101287        101289        98588.9       98217.2       89522.7       84176.8       89636         84202.5       81889.7       85603.6       85069.8       85659.3       89362.5       84392.3       87325.2       87103.8       101216        -1.79769e+307 101327        -1.79769e+307 101336        -1.79769e+307 101391        -1.79769e+307 101419        -1.79769e+307 98223         -1.79769e+307 103990        106586        111798        111994        114991        112210        110826        111637        110988        112766        107097        107573        100363        -1.79769e+307 101283        -1.79769e+307 101391        -1.79769e+307 101360        -1.79769e+307 101331        -1.79769e+307 101273        -1.79769e+307 101552        -1.79769e+307 101365        -1.79769e+307 101445        -1.79769e+307 101375        -1.79769e+307 101335        -1.79769e+307 101269        -1.79769e+307 91485.4       -1.79769e+307 100644        -1.79769e+307 101443        -1.79769e+307 101392        -1.79769e+307 101336        -1.79769e+307 101013        -1.79769e+307 93273.6       -1.79769e+307 100834        -1.79769e+307 101527        -1.79769e+307 101406        -1.79769e+307 101336        -1.79769e+307 101045        -1.79769e+307 102279        -1.79769e+307 101723        -1.79769e+307 101506        -1.79769e+307 101360        -1.79769e+307 101329        -1.79769e+307 101282        -1.79769e+307