# Probe 0 (0.58 0.002 0.176)
# Probe 1 (0.58 0 0.176)
# Probe 2 (0.599429 0.002 0.176)
# Probe 3 (0.599429 0 0.176)
# Probe 4 (0.618857 0.002 0.176)
# Probe 5 (0.618857 0 0.176)
# Probe 6 (0.638286 0.002 0.176)
# Probe 7 (0.638286 0 0.176)
# Probe 8 (0.657714 0.002 0.176)
# Probe 9 (0.657714 0 0.176)
# Probe 10 (0.677143 0.002 0.176)
# Probe 11 (0.677143 0 0.176)
# Probe 12 (0.696571 0.002 0.176)
# Probe 13 (0.696571 0 0.176)
# Probe 14 (0.716 0.002 0.176)
# Probe 15 (0.716 0 0.176)
# Probe 16 (0.716 0.002 0.146667)
# Probe 17 (0.716 0 0.146667)
# Probe 18 (0.716 0.002 0.117333)
# Probe 19 (0.716 0 0.117333)
# Probe 20 (0.716 0.002 0.088)
# Probe 21 (0.716 0 0.088)
# Probe 22 (0.716 0.002 0.0586667)
# Probe 23 (0.716 0 0.0586667)
# Probe 24 (0.716 0.002 0.0293333)
# Probe 25 (0.716 0 0.0293333)
# Probe 26 (0.716 0.002 0)
# Probe 27 (0.716 0 0)
# Probe 28 (0.685143 0.002 0)
# Probe 29 (0.685143 0 0)
# Probe 30 (0.654286 0.002 0)
# Probe 31 (0.654286 0 0)
# Probe 32 (0.623429 0.002 0)
# Probe 33 (0.623429 0 0)
# Probe 34 (0.592571 0.002 0)
# Probe 35 (0.592571 0 0)
# Probe 36 (0.561714 0.002 0)
# Probe 37 (0.561714 0 0)
# Probe 38 (0.530857 0.002 0)
# Probe 39 (0.530857 0 0)
# Probe 40 (0.5 0.002 0)
# Probe 41 (0.5 0 0)
# Probe 42 (0.513333 0.002 0.0293333)
# Probe 43 (0.513333 0 0.0293333)
# Probe 44 (0.526667 0.002 0.0586667)
# Probe 45 (0.526667 0 0.0586667)
# Probe 46 (0.54 0.002 0.088)
# Probe 47 (0.54 0 0.088)
# Probe 48 (0.553333 0.002 0.117333)
# Probe 49 (0.553333 0 0.117333)
# Probe 50 (0.566667 0.002 0.146667)
# Probe 51 (0.566667 0 0.146667)
# Probe 52 (0.588 0.002 0.146667)
# Probe 53 (0.588 0 0.146667)
# Probe 54 (0.609333 0.002 0.146667)
# Probe 55 (0.609333 0 0.146667)
# Probe 56 (0.630667 0.002 0.146667)
# Probe 57 (0.630667 0 0.146667)
# Probe 58 (0.652 0.002 0.146667)
# Probe 59 (0.652 0 0.146667)
# Probe 60 (0.673333 0.002 0.146667)
# Probe 61 (0.673333 0 0.146667)
# Probe 62 (0.694667 0.002 0.146667)
# Probe 63 (0.694667 0 0.146667)
# Probe 64 (0.576571 0.002 0.117333)
# Probe 65 (0.576571 0 0.117333)
# Probe 66 (0.59981 0.002 0.117333)
# Probe 67 (0.59981 0 0.117333)
# Probe 68 (0.623048 0.002 0.117333)
# Probe 69 (0.623048 0 0.117333)
# Probe 70 (0.646286 0.002 0.117333)
# Probe 71 (0.646286 0 0.117333)
# Probe 72 (0.669524 0.002 0.117333)
# Probe 73 (0.669524 0 0.117333)
# Probe 74 (0.692762 0.002 0.117333)
# Probe 75 (0.692762 0 0.117333)
# Probe 76 (0.565143 0.002 0.088)
# Probe 77 (0.565143 0 0.088)
# Probe 78 (0.590286 0.002 0.088)
# Probe 79 (0.590286 0 0.088)
# Probe 80 (0.615429 0.002 0.088)
# Probe 81 (0.615429 0 0.088)
# Probe 82 (0.640571 0.002 0.088)
# Probe 83 (0.640571 0 0.088)
# Probe 84 (0.665714 0.002 0.088)
# Probe 85 (0.665714 0 0.088)
# Probe 86 (0.690857 0.002 0.088)
# Probe 87 (0.690857 0 0.088)
# Probe 88 (0.553714 0.002 0.0586667)
# Probe 89 (0.553714 0 0.0586667)
# Probe 90 (0.580762 0.002 0.0586667)
# Probe 91 (0.580762 0 0.0586667)
# Probe 92 (0.60781 0.002 0.0586667)
# Probe 93 (0.60781 0 0.0586667)
# Probe 94 (0.634857 0.002 0.0586667)
# Probe 95 (0.634857 0 0.0586667)
# Probe 96 (0.661905 0.002 0.0586667)
# Probe 97 (0.661905 0 0.0586667)
# Probe 98 (0.688952 0.002 0.0586667)
# Probe 99 (0.688952 0 0.0586667)
# Probe 100 (0.542286 0.002 0.0293333)
# Probe 101 (0.542286 0 0.0293333)
# Probe 102 (0.571238 0.002 0.0293333)
# Probe 103 (0.571238 0 0.0293333)
# Probe 104 (0.60019 0.002 0.0293333)
# Probe 105 (0.60019 0 0.0293333)
# Probe 106 (0.629143 0.002 0.0293333)
# Probe 107 (0.629143 0 0.0293333)
# Probe 108 (0.658095 0.002 0.0293333)
# Probe 109 (0.658095 0 0.0293333)
# Probe 110 (0.687048 0.002 0.0293333)
# Probe 111 (0.687048 0 0.0293333)
# Time        0             1             2             3             4             5             6             7             8             9             10            11            12            13            14            15            16            17            18            19            20            21            22            23            24            25            26            27            28            29            30            31            32            33            34            35            36            37            38            39            40            41            42            43            44            45            46            47            48            49            50            51            52            53            54            55            56            57            58            59            60            61            62            63            64            65            66            67            68            69            70            71            72            73            74            75            76            77            78            79            80            81            82            83            84            85            86            87            88            89            90            91            92            93            94            95            96            97            98            99            100           101           102           103           104           105           106           107           108           109           110           111          
0             1.17682       1.17682       1.17682       1.17682       1.17682       1.17682       1.17682       1.17682       1.17682       1.17682       1.17682       1.17682       1.17682       1.17682       1.17682       1.17682       1.17682       1.17682       1.17682       1.17682       1.17682       1.17682       1.18198       1.17682       1.17682       1.17682       1.17682       1.17682       1.17682       -1.79769e+307 1.17682       -1.79769e+307 1.17682       -1.79769e+307 1.17682       -1.79769e+307 1.17682       -1.79769e+307 1.17682       -1.79769e+307 1.17682       1.17682       1.17682       1.17682       1.17682       1.17682       1.17682       1.17682       1.17682       1.17682       1.17682       1.17682       1.17682       -1.79769e+307 1.17682       -1.79769e+307 1.17682       -1.79769e+307 1.17682       -1.79769e+307 1.17682       -1.79769e+307 1.17682       -1.79769e+307 1.17682       -1.79769e+307 1.17682       -1.79769e+307 1.17682       -1.79769e+307 1.17682       -1.79769e+307 1.17682       -1.79769e+307 1.17682       -1.79769e+307 1.17682       -1.79769e+307 1.17682       -1.79769e+307 1.17682       -1.79769e+307 1.17682       -1.79769e+307 1.17682       -1.79769e+307 1.17682       -1.79769e+307 1.17682       -1.79769e+307 1.17682       -1.79769e+307 1.17682       -1.79769e+307 1.17682       -1.79769e+307 1.17682       -1.79769e+307 1.17682       -1.79769e+307 1.17682       -1.79769e+307 1.17682       -1.79769e+307 1.17682       -1.79769e+307 1.17682       -1.79769e+307 1.17682       -1.79769e+307 1.17682       -1.79769e+307
0.0001        1.18029       1.1797        1.17684       1.17685       1.17682       1.17682       1.17682       1.17682       1.17682       1.17682       1.17682       1.17682       1.17681       1.17681       1.1722        1.17203       1.14293       1.12624       1.1437        1.12776       1.11758       1.13183       1.136         1.13198       1.14388       1.12749       1.1396        1.13645       1.1768        -1.79769e+307 1.17681       -1.79769e+307 1.17681       -1.79769e+307 1.17681       -1.79769e+307 1.17681       -1.79769e+307 1.17691       -1.79769e+307 1.17428       1.18275       1.19125       1.18526       1.19397       1.18973       1.17583       1.18186       1.1915        1.19004       1.17268       1.16752       1.17691       -1.79769e+307 1.17681       -1.79769e+307 1.17681       -1.79769e+307 1.17681       -1.79769e+307 1.17681       -1.79769e+307 1.17684       -1.79769e+307 1.17688       -1.79769e+307 1.17681       -1.79769e+307 1.17681       -1.79769e+307 1.17681       -1.79769e+307 1.17681       -1.79769e+307 1.17681       -1.79769e+307 1.1709        -1.79769e+307 1.17681       -1.79769e+307 1.17681       -1.79769e+307 1.17681       -1.79769e+307 1.17681       -1.79769e+307 1.1766        -1.79769e+307 1.17662       -1.79769e+307 1.17682       -1.79769e+307 1.17681       -1.79769e+307 1.17681       -1.79769e+307 1.17681       -1.79769e+307 1.17661       -1.79769e+307 1.17685       -1.79769e+307 1.17681       -1.79769e+307 1.17681       -1.79769e+307 1.17681       -1.79769e+307 1.17681       -1.79769e+307 1.17681       -1.79769e+307
0.0002        1.18325       1.18254       1.17688       1.1769        1.17681       1.17681       1.17681       1.17681       1.17681       1.17681       1.17681       1.17681       1.17684       1.17684       1.16861       1.16799       1.1236        1.09792       1.12508       1.09981       1.08479       1.10644       1.10878       1.10614       1.12526       1.09974       1.11838       1.1139        1.17687       -1.79769e+307 1.17679       -1.79769e+307 1.17678       -1.79769e+307 1.17679       -1.79769e+307 1.17679       -1.79769e+307 1.177         -1.79769e+307 1.17503       1.18716       1.2031        1.19267       1.20971       1.20052       1.17989       1.1897        1.20317       1.20309       1.17365       1.16621       1.17684       -1.79769e+307 1.1768        -1.79769e+307 1.17679       -1.79769e+307 1.17679       -1.79769e+307 1.17679       -1.79769e+307 1.17686       -1.79769e+307 1.17698       -1.79769e+307 1.1768        -1.79769e+307 1.17679       -1.79769e+307 1.17678       -1.79769e+307 1.17679       -1.79769e+307 1.1768        -1.79769e+307 1.16583       -1.79769e+307 1.17658       -1.79769e+307 1.17678       -1.79769e+307 1.17678       -1.79769e+307 1.17679       -1.79769e+307 1.17668       -1.79769e+307 1.17575       -1.79769e+307 1.17681       -1.79769e+307 1.17678       -1.79769e+307 1.17678       -1.79769e+307 1.17679       -1.79769e+307 1.17649       -1.79769e+307 1.17687       -1.79769e+307 1.17679       -1.79769e+307 1.17678       -1.79769e+307 1.17679       -1.79769e+307 1.17679       -1.79769e+307 1.17679       -1.79769e+307
0.0003        1.18638       1.18579       1.17689       1.17693       1.17681       1.1768        1.17681       1.17681       1.17681       1.17681       1.17681       1.17681       1.17685       1.17686       1.16511       1.16384       1.10595       1.07201       1.1079        1.07379       1.05488       1.0831        1.08381       1.08269       1.10814       1.07413       1.09812       1.09298       1.17689       -1.79769e+307 1.17676       -1.79769e+307 1.17676       -1.79769e+307 1.17676       -1.79769e+307 1.17677       -1.79769e+307 1.17672       -1.79769e+307 1.17405       1.19126       1.21333       1.19847       1.22145       1.20928       1.18103       1.19509       1.21304       1.21353       1.17465       1.16391       1.17653       -1.79769e+307 1.17677       -1.79769e+307 1.17676       -1.79769e+307 1.17676       -1.79769e+307 1.17676       -1.79769e+307 1.17686       -1.79769e+307 1.17716       -1.79769e+307 1.17679       -1.79769e+307 1.17676       -1.79769e+307 1.17676       -1.79769e+307 1.17677       -1.79769e+307 1.17678       -1.79769e+307 1.15992       -1.79769e+307 1.17595       -1.79769e+307 1.17673       -1.79769e+307 1.17675       -1.79769e+307 1.17676       -1.79769e+307 1.17681       -1.79769e+307 1.17366       -1.79769e+307 1.1768        -1.79769e+307 1.17676       -1.79769e+307 1.17676       -1.79769e+307 1.17676       -1.79769e+307 1.17655       -1.79769e+307 1.17691       -1.79769e+307 1.17676       -1.79769e+307 1.17676       -1.79769e+307 1.17676       -1.79769e+307 1.17676       -1.79769e+307 1.17677       -1.79769e+307
0.0004        1.18924       1.1891        1.17681       1.17689       1.17679       1.17678       1.1768        1.1768        1.17681       1.17681       1.17681       1.17681       1.17686       1.17687       1.16208       1.16031       1.09107       1.05004       1.09359       1.0517        1.02981       1.06321       1.06312       1.06338       1.09369       1.05242       1.08083       1.07554       1.17686       -1.79769e+307 1.17673       -1.79769e+307 1.17673       -1.79769e+307 1.17673       -1.79769e+307 1.17675       -1.79769e+307 1.17611       -1.79769e+307 1.17286       1.19467       1.2212        1.20181       1.23126       1.21675       1.18302       1.20044       1.22138       1.22197       1.17556       1.16048       1.17603       -1.79769e+307 1.17673       -1.79769e+307 1.17674       -1.79769e+307 1.17674       -1.79769e+307 1.17674       -1.79769e+307 1.17683       -1.79769e+307 1.1773        -1.79769e+307 1.17678       -1.79769e+307 1.17673       -1.79769e+307 1.17673       -1.79769e+307 1.17674       -1.79769e+307 1.17676       -1.79769e+307 1.15212       -1.79769e+307 1.17476       -1.79769e+307 1.17664       -1.79769e+307 1.17672       -1.79769e+307 1.17673       -1.79769e+307 1.17669       -1.79769e+307 1.16925       -1.79769e+307 1.17666       -1.79769e+307 1.17673       -1.79769e+307 1.17673       -1.79769e+307 1.17673       -1.79769e+307 1.17662       -1.79769e+307 1.17697       -1.79769e+307 1.17674       -1.79769e+307 1.17673       -1.79769e+307 1.17673       -1.79769e+307 1.17673       -1.79769e+307 1.17675       -1.79769e+307
0.0005        1.19196       1.19238       1.17657       1.17661       1.17674       1.17672       1.17679       1.17678       1.1768        1.1768        1.17681       1.17681       1.17686       1.17688       1.15977       1.15758       1.07958       1.03294       1.08252       1.03396       1.01065       1.04735       1.0477        1.04894       1.08233       1.03514       1.06698       1.06186       1.17683       -1.79769e+307 1.1767        -1.79769e+307 1.1767        -1.79769e+307 1.1767        -1.79769e+307 1.17672       -1.79769e+307 1.17487       -1.79769e+307 1.17059       1.19681       1.22738       1.20581       1.23801       1.2226        1.18674       1.20537       1.22775       1.22877       1.178         1.16049       1.17534       -1.79769e+307 1.17663       -1.79769e+307 1.17671       -1.79769e+307 1.17671       -1.79769e+307 1.17671       -1.79769e+307 1.17682       -1.79769e+307 1.17732       -1.79769e+307 1.17676       -1.79769e+307 1.17671       -1.79769e+307 1.1767        -1.79769e+307 1.17671       -1.79769e+307 1.17673       -1.79769e+307 1.14265       -1.79769e+307 1.17288       -1.79769e+307 1.17646       -1.79769e+307 1.17668       -1.79769e+307 1.1767        -1.79769e+307 1.17674       -1.79769e+307 1.16217       -1.79769e+307 1.17629       -1.79769e+307 1.17668       -1.79769e+307 1.1767        -1.79769e+307 1.1767        -1.79769e+307 1.17661       -1.79769e+307 1.1771        -1.79769e+307 1.17672       -1.79769e+307 1.1767        -1.79769e+307 1.1767        -1.79769e+307 1.17671       -1.79769e+307 1.17673       -1.79769e+307
0.0006        1.19436       1.19528       1.17617       1.17619       1.17666       1.1766        1.17677       1.17675       1.17679       1.17679       1.1768        1.17681       1.17685       1.17688       1.15806       1.15553       1.07161       1.0208        1.07456       1.02132       0.997353      1.03595       1.0366        1.0388        1.07403       1.02294       1.05697       1.05222       1.17679       -1.79769e+307 1.17667       -1.79769e+307 1.17667       -1.79769e+307 1.17667       -1.79769e+307 1.17667       -1.79769e+307 1.17299       -1.79769e+307 1.16942       1.19857       1.23283       1.21022       1.24305       1.22754       1.19082       1.20958       1.23273       1.23415       1.1817        1.16324       1.17446       -1.79769e+307 1.17646       -1.79769e+307 1.17666       -1.79769e+307 1.17668       -1.79769e+307 1.17668       -1.79769e+307 1.17678       -1.79769e+307 1.17719       -1.79769e+307 1.17669       -1.79769e+307 1.17668       -1.79769e+307 1.17667       -1.79769e+307 1.17668       -1.79769e+307 1.17669       -1.79769e+307 1.13193       -1.79769e+307 1.17025       -1.79769e+307 1.17614       -1.79769e+307 1.17663       -1.79769e+307 1.17667       -1.79769e+307 1.17664       -1.79769e+307 1.15289       -1.79769e+307 1.17549       -1.79769e+307 1.1766        -1.79769e+307 1.17666       -1.79769e+307 1.17667       -1.79769e+307 1.17652       -1.79769e+307 1.17738       -1.79769e+307 1.1767        -1.79769e+307 1.17667       -1.79769e+307 1.17667       -1.79769e+307 1.17668       -1.79769e+307 1.17669       -1.79769e+307
0.0007        1.19644       1.19776       1.17564       1.17566       1.17652       1.17639       1.17672       1.17669       1.17678       1.17678       1.1768        1.1768        1.17682       1.17688       1.15683       1.15406       1.06574       1.01176       1.0684        1.01177       0.987799      1.02752       1.02854       1.03139       1.06759       1.01392       1.04944       1.04505       1.17677       -1.79769e+307 1.17664       -1.79769e+307 1.17663       -1.79769e+307 1.17664       -1.79769e+307 1.17657       -1.79769e+307 1.17047       -1.79769e+307 1.16916       1.20058       1.23788       1.2146        1.24772       1.23214       1.19439       1.21368       1.23726       1.23906       1.18545       1.16648       1.17339       -1.79769e+307 1.17619       -1.79769e+307 1.1766        -1.79769e+307 1.17665       -1.79769e+307 1.17665       -1.79769e+307 1.17675       -1.79769e+307 1.1769        -1.79769e+307 1.17653       -1.79769e+307 1.17664       -1.79769e+307 1.17664       -1.79769e+307 1.17666       -1.79769e+307 1.17665       -1.79769e+307 1.12086       -1.79769e+307 1.16684       -1.79769e+307 1.17559       -1.79769e+307 1.17656       -1.79769e+307 1.17664       -1.79769e+307 1.17638       -1.79769e+307 1.1425        -1.79769e+307 1.17412       -1.79769e+307 1.17644       -1.79769e+307 1.17662       -1.79769e+307 1.17664       -1.79769e+307 1.17642       -1.79769e+307 1.17778       -1.79769e+307 1.17666       -1.79769e+307 1.17664       -1.79769e+307 1.17664       -1.79769e+307 1.17665       -1.79769e+307 1.17666       -1.79769e+307
0.0008        1.1984        1.20005       1.175         1.175         1.1763        1.17607       1.17665       1.17659       1.17677       1.17676       1.1768        1.1768        1.17679       1.17687       1.15593       1.153         1.06175       1.00544       1.06392       1.00501       0.981391      1.02145       1.02262       1.02596       1.06313       1.00758       1.0439        1.03984       1.17676       -1.79769e+307 1.17661       -1.79769e+307 1.1766        -1.79769e+307 1.17661       -1.79769e+307 1.17642       -1.79769e+307 1.16746       -1.79769e+307 1.16965       1.2026        1.24241       1.21853       1.25242       1.23656       1.19765       1.2175        1.24117       1.24332       1.18902       1.16962       1.17219       -1.79769e+307 1.17582       -1.79769e+307 1.17651       -1.79769e+307 1.17661       -1.79769e+307 1.17662       -1.79769e+307 1.17675       -1.79769e+307 1.17643       -1.79769e+307 1.17629       -1.79769e+307 1.17658       -1.79769e+307 1.17661       -1.79769e+307 1.17663       -1.79769e+307 1.1766        -1.79769e+307 1.11035       -1.79769e+307 1.16288       -1.79769e+307 1.17475       -1.79769e+307 1.17645       -1.79769e+307 1.17661       -1.79769e+307 1.17624       -1.79769e+307 1.13238       -1.79769e+307 1.17213       -1.79769e+307 1.17617       -1.79769e+307 1.17658       -1.79769e+307 1.17661       -1.79769e+307 1.17629       -1.79769e+307 1.17826       -1.79769e+307 1.17659       -1.79769e+307 1.1766        -1.79769e+307 1.1766        -1.79769e+307 1.17662       -1.79769e+307 1.17662       -1.79769e+307
0.0009        1.20008       1.20199       1.17428       1.17427       1.176         1.17563       1.17653       1.17644       1.17674       1.17673       1.17679       1.17679       1.17679       1.17687       1.15522       1.15218       1.05897       1.00097       1.0608        1.00013       0.976945      1.01696       1.01886       1.02249       1.05971       1.00272       1.04          1.03627       1.17674       -1.79769e+307 1.17658       -1.79769e+307 1.17657       -1.79769e+307 1.17657       -1.79769e+307 1.17623       -1.79769e+307 1.1641        -1.79769e+307 1.1704        1.20443       1.24694       1.22265       1.25701       1.24063       1.20157       1.22167       1.24466       1.24731       1.19262       1.1734        1.17086       -1.79769e+307 1.17534       -1.79769e+307 1.17636       -1.79769e+307 1.17657       -1.79769e+307 1.17659       -1.79769e+307 1.17675       -1.79769e+307 1.17585       -1.79769e+307 1.17595       -1.79769e+307 1.17649       -1.79769e+307 1.17657       -1.79769e+307 1.1766        -1.79769e+307 1.17654       -1.79769e+307 1.10061       -1.79769e+307 1.1589        -1.79769e+307 1.17356       -1.79769e+307 1.17628       -1.79769e+307 1.17657       -1.79769e+307 1.17622       -1.79769e+307 1.12308       -1.79769e+307 1.1696        -1.79769e+307 1.17573       -1.79769e+307 1.17651       -1.79769e+307 1.17658       -1.79769e+307 1.17614       -1.79769e+307 1.1788        -1.79769e+307 1.1765        -1.79769e+307 1.17656       -1.79769e+307 1.17657       -1.79769e+307 1.17658       -1.79769e+307 1.17657       -1.79769e+307
0.001         1.20154       1.20353       1.1735        1.17342       1.1756        1.17509       1.17637       1.17623       1.17669       1.17667       1.17678       1.17678       1.17684       1.17693       1.15461       1.15145       1.05727       0.998117      1.0588        0.996945      0.974276      1.01405       1.01611       1.01993       1.05748       0.99957       1.03739       1.034         1.17671       -1.79769e+307 1.17655       -1.79769e+307 1.17654       -1.79769e+307 1.17653       -1.79769e+307 1.17609       -1.79769e+307 1.16075       -1.79769e+307 1.17156       1.2064        1.25117       1.22657       1.26134       1.24438       1.20558       1.22572       1.24816       1.25129       1.1963        1.17757       1.16933       -1.79769e+307 1.17475       -1.79769e+307 1.17616       -1.79769e+307 1.17651       -1.79769e+307 1.17656       -1.79769e+307 1.17676       -1.79769e+307 1.17527       -1.79769e+307 1.17552       -1.79769e+307 1.17636       -1.79769e+307 1.17652       -1.79769e+307 1.17656       -1.79769e+307 1.17647       -1.79769e+307 1.09185       -1.79769e+307 1.15612       -1.79769e+307 1.17202       -1.79769e+307 1.17602       -1.79769e+307 1.17651       -1.79769e+307 1.17632       -1.79769e+307 1.11482       -1.79769e+307 1.16719       -1.79769e+307 1.1751        -1.79769e+307 1.17641       -1.79769e+307 1.17654       -1.79769e+307 1.17592       -1.79769e+307 1.17933       -1.79769e+307 1.17638       -1.79769e+307 1.17651       -1.79769e+307 1.17653       -1.79769e+307 1.17655       -1.79769e+307 1.17651       -1.79769e+307
0.0011        1.20291       1.20506       1.17263       1.17238       1.17511       1.17448       1.17618       1.17597       1.17662       1.17658       1.17676       1.17676       1.17678       1.17687       1.15408       1.15081       1.05621       0.996317      1.05754       0.994935      0.972668      1.01215       1.01394       1.01803       1.05601       0.997545      1.0356        1.03251       1.17666       -1.79769e+307 1.17652       -1.79769e+307 1.1765        -1.79769e+307 1.17648       -1.79769e+307 1.17604       -1.79769e+307 1.15769       -1.79769e+307 1.17301       1.20842       1.25516       1.23036       1.26531       1.24787       1.20954       1.22955       1.25148       1.25509       1.20023       1.18256       1.16769       -1.79769e+307 1.17404       -1.79769e+307 1.17589       -1.79769e+307 1.17643       -1.79769e+307 1.17651       -1.79769e+307 1.17676       -1.79769e+307 1.17475       -1.79769e+307 1.17502       -1.79769e+307 1.17617       -1.79769e+307 1.17646       -1.79769e+307 1.17653       -1.79769e+307 1.1764        -1.79769e+307 1.0834        -1.79769e+307 1.15393       -1.79769e+307 1.17012       -1.79769e+307 1.17563       -1.79769e+307 1.17645       -1.79769e+307 1.17639       -1.79769e+307 1.1075        -1.79769e+307 1.16519       -1.79769e+307 1.17424       -1.79769e+307 1.17626       -1.79769e+307 1.1765        -1.79769e+307 1.17571       -1.79769e+307 1.17981       -1.79769e+307 1.17623       -1.79769e+307 1.17644       -1.79769e+307 1.17649       -1.79769e+307 1.17652       -1.79769e+307 1.17645       -1.79769e+307
0.0012        1.20423       1.20655       1.17167       1.17118       1.17454       1.17385       1.17595       1.17567       1.17652       1.17646       1.17675       1.17675       1.17681       1.17687       1.1536        1.15023       1.05553       0.995155      1.05673       0.993648      0.971598      1.01083       1.0123        1.01661       1.05502       0.996197      1.03405       1.03116       1.17661       -1.79769e+307 1.17649       -1.79769e+307 1.17647       -1.79769e+307 1.17644       -1.79769e+307 1.17614       -1.79769e+307 1.15488       -1.79769e+307 1.1742        1.20991       1.25886       1.23404       1.26887       1.25093       1.21332       1.23318       1.25451       1.25857       1.20352       1.18624       1.16597       -1.79769e+307 1.1732        -1.79769e+307 1.17556       -1.79769e+307 1.17632       -1.79769e+307 1.17647       -1.79769e+307 1.17678       -1.79769e+307 1.17422       -1.79769e+307 1.17445       -1.79769e+307 1.17592       -1.79769e+307 1.17638       -1.79769e+307 1.1765        -1.79769e+307 1.17634       -1.79769e+307 1.07541       -1.79769e+307 1.15237       -1.79769e+307 1.16799       -1.79769e+307 1.17507       -1.79769e+307 1.17636       -1.79769e+307 1.17641       -1.79769e+307 1.10104       -1.79769e+307 1.1636        -1.79769e+307 1.17316       -1.79769e+307 1.17603       -1.79769e+307 1.17645       -1.79769e+307 1.17552       -1.79769e+307 1.18022       -1.79769e+307 1.17605       -1.79769e+307 1.17634       -1.79769e+307 1.17645       -1.79769e+307 1.17649       -1.79769e+307 1.17639       -1.79769e+307
0.0013        1.20545       1.20796       1.17064       1.16985       1.17394       1.17322       1.17572       1.17536       1.1764        1.1763        1.17672       1.17671       1.17673       1.17683       1.15318       1.14976       1.05493       0.994245      1.05607       0.992693      0.970952      1.00995       1.01099       1.01546       1.05429       0.995284      1.03262       1.02984       1.1765        -1.79769e+307 1.17646       -1.79769e+307 1.17644       -1.79769e+307 1.1764        -1.79769e+307 1.17643       -1.79769e+307 1.15257       -1.79769e+307 1.17526       1.2111        1.26213       1.23745       1.27193       1.25365       1.21704       1.23669       1.25733       1.26179       1.20669       1.18983       1.16415       -1.79769e+307 1.17254       -1.79769e+307 1.17519       -1.79769e+307 1.17618       -1.79769e+307 1.17641       -1.79769e+307 1.17683       -1.79769e+307 1.17378       -1.79769e+307 1.17383       -1.79769e+307 1.17563       -1.79769e+307 1.17627       -1.79769e+307 1.17646       -1.79769e+307 1.17627       -1.79769e+307 1.06808       -1.79769e+307 1.15148       -1.79769e+307 1.16584       -1.79769e+307 1.17432       -1.79769e+307 1.17624       -1.79769e+307 1.17638       -1.79769e+307 1.09551       -1.79769e+307 1.16241       -1.79769e+307 1.17194       -1.79769e+307 1.1757        -1.79769e+307 1.17639       -1.79769e+307 1.17532       -1.79769e+307 1.18051       -1.79769e+307 1.17587       -1.79769e+307 1.17621       -1.79769e+307 1.1764        -1.79769e+307 1.17645       -1.79769e+307 1.1763        -1.79769e+307
0.0014        1.20659       1.20931       1.16954       1.16844       1.17332       1.17262       1.17549       1.17511       1.17625       1.17611       1.17668       1.17666       1.17673       1.17676       1.15276       1.14929       1.05417       0.993265      1.05534       0.991767      0.969983      1.00899       1.00945       1.01418       1.05345       0.99434       1.03162       1.02894       1.17637       -1.79769e+307 1.17643       -1.79769e+307 1.1764        -1.79769e+307 1.17637       -1.79769e+307 1.177         -1.79769e+307 1.15085       -1.79769e+307 1.1762        1.21211       1.26493       1.24053       1.27461       1.25613       1.22049       1.23994       1.25994       1.26474       1.20986       1.19404       1.16218       -1.79769e+307 1.1718        -1.79769e+307 1.17477       -1.79769e+307 1.17601       -1.79769e+307 1.17634       -1.79769e+307 1.17684       -1.79769e+307 1.17334       -1.79769e+307 1.17317       -1.79769e+307 1.17529       -1.79769e+307 1.17613       -1.79769e+307 1.17641       -1.79769e+307 1.17619       -1.79769e+307 1.06143       -1.79769e+307 1.15113       -1.79769e+307 1.16374       -1.79769e+307 1.17335       -1.79769e+307 1.17606       -1.79769e+307 1.17636       -1.79769e+307 1.09081       -1.79769e+307 1.16159       -1.79769e+307 1.17071       -1.79769e+307 1.17525       -1.79769e+307 1.17631       -1.79769e+307 1.17499       -1.79769e+307 1.18068       -1.79769e+307 1.17567       -1.79769e+307 1.17605       -1.79769e+307 1.17633       -1.79769e+307 1.17641       -1.79769e+307 1.17619       -1.79769e+307