# Probe 0 (0.58 0.002 0.176)
# Probe 1 (0.58 0 0.176)
# Probe 2 (0.599429 0.002 0.176)
# Probe 3 (0.599429 0 0.176)
# Probe 4 (0.618857 0.002 0.176)
# Probe 5 (0.618857 0 0.176)
# Probe 6 (0.638286 0.002 0.176)
# Probe 7 (0.638286 0 0.176)
# Probe 8 (0.657714 0.002 0.176)
# Probe 9 (0.657714 0 0.176)
# Probe 10 (0.677143 0.002 0.176)
# Probe 11 (0.677143 0 0.176)
# Probe 12 (0.696571 0.002 0.176)
# Probe 13 (0.696571 0 0.176)
# Probe 14 (0.716 0.002 0.176)
# Probe 15 (0.716 0 0.176)
# Probe 16 (0.716 0.002 0.146667)
# Probe 17 (0.716 0 0.146667)
# Probe 18 (0.716 0.002 0.117333)
# Probe 19 (0.716 0 0.117333)
# Probe 20 (0.716 0.002 0.088)
# Probe 21 (0.716 0 0.088)
# Probe 22 (0.716 0.002 0.0586667)
# Probe 23 (0.716 0 0.0586667)
# Probe 24 (0.716 0.002 0.0293333)
# Probe 25 (0.716 0 0.0293333)
# Probe 26 (0.716 0.002 0)
# Probe 27 (0.716 0 0)
# Probe 28 (0.685143 0.002 0)
# Probe 29 (0.685143 0 0)
# Probe 30 (0.654286 0.002 0)
# Probe 31 (0.654286 0 0)
# Probe 32 (0.623429 0.002 0)
# Probe 33 (0.623429 0 0)
# Probe 34 (0.592571 0.002 0)
# Probe 35 (0.592571 0 0)
# Probe 36 (0.561714 0.002 0)
# Probe 37 (0.561714 0 0)
# Probe 38 (0.530857 0.002 0)
# Probe 39 (0.530857 0 0)
# Probe 40 (0.5 0.002 0)
# Probe 41 (0.5 0 0)
# Probe 42 (0.513333 0.002 0.0293333)
# Probe 43 (0.513333 0 0.0293333)
# Probe 44 (0.526667 0.002 0.0586667)
# Probe 45 (0.526667 0 0.0586667)
# Probe 46 (0.54 0.002 0.088)
# Probe 47 (0.54 0 0.088)
# Probe 48 (0.553333 0.002 0.117333)
# Probe 49 (0.553333 0 0.117333)
# Probe 50 (0.566667 0.002 0.146667)
# Probe 51 (0.566667 0 0.146667)
# Probe 52 (0.588 0.002 0.146667)
# Probe 53 (0.588 0 0.146667)
# Probe 54 (0.609333 0.002 0.146667)
# Probe 55 (0.609333 0 0.146667)
# Probe 56 (0.630667 0.002 0.146667)
# Probe 57 (0.630667 0 0.146667)
# Probe 58 (0.652 0.002 0.146667)
# Probe 59 (0.652 0 0.146667)
# Probe 60 (0.673333 0.002 0.146667)
# Probe 61 (0.673333 0 0.146667)
# Probe 62 (0.694667 0.002 0.146667)
# Probe 63 (0.694667 0 0.146667)
# Probe 64 (0.576571 0.002 0.117333)
# Probe 65 (0.576571 0 0.117333)
# Probe 66 (0.59981 0.002 0.117333)
# Probe 67 (0.59981 0 0.117333)
# Probe 68 (0.623048 0.002 0.117333)
# Probe 69 (0.623048 0 0.117333)
# Probe 70 (0.646286 0.002 0.117333)
# Probe 71 (0.646286 0 0.117333)
# Probe 72 (0.669524 0.002 0.117333)
# Probe 73 (0.669524 0 0.117333)
# Probe 74 (0.692762 0.002 0.117333)
# Probe 75 (0.692762 0 0.117333)
# Probe 76 (0.565143 0.002 0.088)
# Probe 77 (0.565143 0 0.088)
# Probe 78 (0.590286 0.002 0.088)
# Probe 79 (0.590286 0 0.088)
# Probe 80 (0.615429 0.002 0.088)
# Probe 81 (0.615429 0 0.088)
# Probe 82 (0.640571 0.002 0.088)
# Probe 83 (0.640571 0 0.088)
# Probe 84 (0.665714 0.002 0.088)
# Probe 85 (0.665714 0 0.088)
# Probe 86 (0.690857 0.002 0.088)
# Probe 87 (0.690857 0 0.088)
# Probe 88 (0.553714 0.002 0.0586667)
# Probe 89 (0.553714 0 0.0586667)
# Probe 90 (0.580762 0.002 0.0586667)
# Probe 91 (0.580762 0 0.0586667)
# Probe 92 (0.60781 0.002 0.0586667)
# Probe 93 (0.60781 0 0.0586667)
# Probe 94 (0.634857 0.002 0.0586667)
# Probe 95 (0.634857 0 0.0586667)
# Probe 96 (0.661905 0.002 0.0586667)
# Probe 97 (0.661905 0 0.0586667)
# Probe 98 (0.688952 0.002 0.0586667)
# Probe 99 (0.688952 0 0.0586667)
# Probe 100 (0.542286 0.002 0.0293333)
# Probe 101 (0.542286 0 0.0293333)
# Probe 102 (0.571238 0.002 0.0293333)
# Probe 103 (0.571238 0 0.0293333)
# Probe 104 (0.60019 0.002 0.0293333)
# Probe 105 (0.60019 0 0.0293333)
# Probe 106 (0.629143 0.002 0.0293333)
# Probe 107 (0.629143 0 0.0293333)
# Probe 108 (0.658095 0.002 0.0293333)
# Probe 109 (0.658095 0 0.0293333)
# Probe 110 (0.687048 0.002 0.0293333)
# Probe 111 (0.687048 0 0.0293333)
# Time        0             1             2             3             4             5             6             7             8             9             10            11            12            13            14            15            16            17            18            19            20            21            22            23            24            25            26            27            28            29            30            31            32            33            34            35            36            37            38            39            40            41            42            43            44            45            46            47            48            49            50            51            52            53            54            55            56            57            58            59            60            61            62            63            64            65            66            67            68            69            70            71            72            73            74            75            76            77            78            79            80            81            82            83            84            85            86            87            88            89            90            91            92            93            94            95            96            97            98            99            100           101           102           103           104           105           106           107           108           109           110           111          
0             300           300           300           300           300           300           300           300           300           300           300           300           300           300           300           300           300           300           300           300           300           300           301.316       300           300           300           300           300           300           -1.79769e+307 300           -1.79769e+307 300           -1.79769e+307 300           -1.79769e+307 300           -1.79769e+307 300           -1.79769e+307 300           300           300           300           300           300           300           300           300           300           300           300           300           -1.79769e+307 300           -1.79769e+307 300           -1.79769e+307 300           -1.79769e+307 300           -1.79769e+307 300           -1.79769e+307 300           -1.79769e+307 300           -1.79769e+307 300           -1.79769e+307 300           -1.79769e+307 300           -1.79769e+307 300           -1.79769e+307 300           -1.79769e+307 300           -1.79769e+307 300           -1.79769e+307 300           -1.79769e+307 300           -1.79769e+307 300           -1.79769e+307 300           -1.79769e+307 300           -1.79769e+307 300           -1.79769e+307 300           -1.79769e+307 300           -1.79769e+307 300           -1.79769e+307 300           -1.79769e+307 300           -1.79769e+307 300           -1.79769e+307 300           -1.79769e+307 300           -1.79769e+307 300           -1.79769e+307
0.0001        300.367       300.44        299.998       299.998       300           300.001       300           300           300           300           300.001       300.001       300.012       300.016       299.23        299.105       297.664       296.858       297.794       296.473       295.851       296.869       297.794       297.027       297.815       296.654       297.347       297.595       300.028       -1.79769e+307 300.002       -1.79769e+307 300.003       -1.79769e+307 300.003       -1.79769e+307 300.002       -1.79769e+307 299.978       -1.79769e+307 303.082       301.919       302.286       304.279       305.463       303.536       304.774       304.034       302.234       304.074       302.673       304.59        299.975       -1.79769e+307 300.002       -1.79769e+307 300.002       -1.79769e+307 300.002       -1.79769e+307 300.002       -1.79769e+307 300.01        -1.79769e+307 300.004       -1.79769e+307 300.002       -1.79769e+307 300.003       -1.79769e+307 300.003       -1.79769e+307 300.002       -1.79769e+307 300.007       -1.79769e+307 301.821       -1.79769e+307 300           -1.79769e+307 300.003       -1.79769e+307 300.003       -1.79769e+307 300.002       -1.79769e+307 300.133       -1.79769e+307 300.124       -1.79769e+307 300.001       -1.79769e+307 300.003       -1.79769e+307 300.003       -1.79769e+307 300.003       -1.79769e+307 300.094       -1.79769e+307 299.998       -1.79769e+307 300.002       -1.79769e+307 300.003       -1.79769e+307 300.003       -1.79769e+307 300.002       -1.79769e+307 300.006       -1.79769e+307
0.0002        300.925       300.992       300.017       300.027       300.003       300.004       300.002       300.002       300.002       300.002       300.002       300.002       300.007       300.011       298.569       298.41        293.262       289.967       293.438       289.464       287.888       290.576       291.639       291.174       293.505       289.733       291.949       292.083       300.017       -1.79769e+307 300.012       -1.79769e+307 300.012       -1.79769e+307 300.013       -1.79769e+307 300.011       -1.79769e+307 299.994       -1.79769e+307 303.962       303.301       304.055       306.811       308.531       305.904       306.614       305.831       303.954       306.188       303.269       305.662       300.026       -1.79769e+307 300.01        -1.79769e+307 300.012       -1.79769e+307 300.011       -1.79769e+307 300.012       -1.79769e+307 300.009       -1.79769e+307 300.07        -1.79769e+307 300.01        -1.79769e+307 300.013       -1.79769e+307 300.012       -1.79769e+307 300.011       -1.79769e+307 300.015       -1.79769e+307 303.379       -1.79769e+307 300.074       -1.79769e+307 300.014       -1.79769e+307 300.013       -1.79769e+307 300.012       -1.79769e+307 300.098       -1.79769e+307 300.626       -1.79769e+307 300.01        -1.79769e+307 300.013       -1.79769e+307 300.013       -1.79769e+307 300.012       -1.79769e+307 300.117       -1.79769e+307 300.036       -1.79769e+307 300.012       -1.79769e+307 300.013       -1.79769e+307 300.012       -1.79769e+307 300.011       -1.79769e+307 300.014       -1.79769e+307
0.0003        301.292       301.397       300.084       300.126       300.012       300.014       300.004       300.005       300.003       300.003       300.003       300.003       300.001       300.004       298.41        298.263       292.237       287.912       292.432       287.379       286.124       288.727       290.064       289.688       292.446       287.673       290.299       290.456       300.01        -1.79769e+307 300.021       -1.79769e+307 300.022       -1.79769e+307 300.022       -1.79769e+307 300.02        -1.79769e+307 300.143       -1.79769e+307 304.688       304.074       304.749       308.274       310.047       307.123       308.321       307.044       304.568       307.101       303.854       306.683       300.182       -1.79769e+307 300.022       -1.79769e+307 300.021       -1.79769e+307 300.02        -1.79769e+307 300.02        -1.79769e+307 300.004       -1.79769e+307 300.207       -1.79769e+307 300.021       -1.79769e+307 300.022       -1.79769e+307 300.021       -1.79769e+307 300.019       -1.79769e+307 300.022       -1.79769e+307 304.93        -1.79769e+307 300.271       -1.79769e+307 300.029       -1.79769e+307 300.023       -1.79769e+307 300.021       -1.79769e+307 300.005       -1.79769e+307 301.523       -1.79769e+307 300.04        -1.79769e+307 300.023       -1.79769e+307 300.022       -1.79769e+307 300.022       -1.79769e+307 300.066       -1.79769e+307 300.138       -1.79769e+307 300.023       -1.79769e+307 300.022       -1.79769e+307 300.022       -1.79769e+307 300.02        -1.79769e+307 300.022       -1.79769e+307
0.0004        301.544       301.68        300.209       300.317       300.035       300.044       300.007       300.009       300.005       300.005       300.004       300.004       299.992       299.994       298.467       298.291       292.744       288.453       292.859       287.923       287.275       289.245       290.525       290.172       292.827       288.247       290.521       290.693       300.006       -1.79769e+307 300.03        -1.79769e+307 300.03        -1.79769e+307 300.03        -1.79769e+307 300.032       -1.79769e+307 300.326       -1.79769e+307 305.219       304.54        305.303       309.804       310.713       307.794       309.561       307.847       304.809       307.741       304.825       308.588       300.41        -1.79769e+307 300.048       -1.79769e+307 300.03        -1.79769e+307 300.028       -1.79769e+307 300.028       -1.79769e+307 299.992       -1.79769e+307 300.413       -1.79769e+307 300.046       -1.79769e+307 300.031       -1.79769e+307 300.03        -1.79769e+307 300.027       -1.79769e+307 300.026       -1.79769e+307 306.386       -1.79769e+307 300.63        -1.79769e+307 300.058       -1.79769e+307 300.032       -1.79769e+307 300.03        -1.79769e+307 299.954       -1.79769e+307 302.759       -1.79769e+307 300.139       -1.79769e+307 300.034       -1.79769e+307 300.031       -1.79769e+307 300.03        -1.79769e+307 300.003       -1.79769e+307 300.33        -1.79769e+307 300.038       -1.79769e+307 300.031       -1.79769e+307 300.03        -1.79769e+307 300.028       -1.79769e+307 300.028       -1.79769e+307
0.0005        301.668       301.856       300.389       300.609       300.083       300.105       300.015       300.018       300.007       300.007       300.005       300.005       299.982       299.981       298.515       298.328       293.652       289.881       293.712       289.602       289.237       290.676       291.466       291.138       293.631       289.875       291.454       291.612       299.995       -1.79769e+307 300.038       -1.79769e+307 300.039       -1.79769e+307 300.039       -1.79769e+307 300.049       -1.79769e+307 300.475       -1.79769e+307 306.12        305.097       305.796       310.654       311.474       308.414       310.285       308.578       305.133       308.294       305.475       309.647       300.68        -1.79769e+307 300.101       -1.79769e+307 300.041       -1.79769e+307 300.037       -1.79769e+307 300.036       -1.79769e+307 299.977       -1.79769e+307 300.657       -1.79769e+307 300.096       -1.79769e+307 300.042       -1.79769e+307 300.038       -1.79769e+307 300.035       -1.79769e+307 300.027       -1.79769e+307 307.373       -1.79769e+307 301.173       -1.79769e+307 300.112       -1.79769e+307 300.043       -1.79769e+307 300.038       -1.79769e+307 299.867       -1.79769e+307 303.993       -1.79769e+307 300.355       -1.79769e+307 300.053       -1.79769e+307 300.04        -1.79769e+307 300.038       -1.79769e+307 299.967       -1.79769e+307 300.577       -1.79769e+307 300.069       -1.79769e+307 300.041       -1.79769e+307 300.038       -1.79769e+307 300.036       -1.79769e+307 300.033       -1.79769e+307
0.0006        301.769       302.033       300.586       300.91        300.158       300.204       300.031       300.037       300.01        300.01        300.006       300.006       299.975       299.97        298.512       298.324       294.337       291.217       294.437       291.157       290.885       291.996       292.533       292.058       294.312       291.355       292.329       292.427       299.981       -1.79769e+307 300.045       -1.79769e+307 300.047       -1.79769e+307 300.048       -1.79769e+307 300.077       -1.79769e+307 300.478       -1.79769e+307 306.654       305.502       306.183       311.306       312.256       309.011       311.049       309.436       305.531       308.913       305.956       310.289       300.954       -1.79769e+307 300.193       -1.79769e+307 300.058       -1.79769e+307 300.045       -1.79769e+307 300.043       -1.79769e+307 299.977       -1.79769e+307 300.888       -1.79769e+307 300.184       -1.79769e+307 300.057       -1.79769e+307 300.047       -1.79769e+307 300.042       -1.79769e+307 300.027       -1.79769e+307 307.677       -1.79769e+307 301.887       -1.79769e+307 300.21        -1.79769e+307 300.057       -1.79769e+307 300.046       -1.79769e+307 299.793       -1.79769e+307 304.8         -1.79769e+307 300.725       -1.79769e+307 300.092       -1.79769e+307 300.049       -1.79769e+307 300.046       -1.79769e+307 299.943       -1.79769e+307 300.822       -1.79769e+307 300.127       -1.79769e+307 300.051       -1.79769e+307 300.046       -1.79769e+307 300.044       -1.79769e+307 300.036       -1.79769e+307
0.0007        301.876       302.224       300.757       301.139       300.258       300.334       300.06        300.073       300.015       300.016       300.007       300.006       299.973       299.96        298.477       298.28        295.002       292.565       295.146       292.669       292.322       293.225       293.501       292.951       294.995       292.772       293.219       293.292       299.96        -1.79769e+307 300.053       -1.79769e+307 300.055       -1.79769e+307 300.057       -1.79769e+307 300.119       -1.79769e+307 300.275       -1.79769e+307 307.06        305.73        306.522       311.981       312.901       309.556       312.16        310.334       305.83        309.426       306.559       311.166       301.199       -1.79769e+307 300.325       -1.79769e+307 300.085       -1.79769e+307 300.054       -1.79769e+307 300.05        -1.79769e+307 299.976       -1.79769e+307 301.079       -1.79769e+307 300.313       -1.79769e+307 300.082       -1.79769e+307 300.056       -1.79769e+307 300.05        -1.79769e+307 300.023       -1.79769e+307 307.223       -1.79769e+307 302.739       -1.79769e+307 300.374       -1.79769e+307 300.077       -1.79769e+307 300.053       -1.79769e+307 299.77        -1.79769e+307 304.875       -1.79769e+307 301.244       -1.79769e+307 300.165       -1.79769e+307 300.061       -1.79769e+307 300.053       -1.79769e+307 299.905       -1.79769e+307 301.056       -1.79769e+307 300.227       -1.79769e+307 300.066       -1.79769e+307 300.054       -1.79769e+307 300.051       -1.79769e+307 300.038       -1.79769e+307
0.0008        301.964       302.387       300.871       301.251       300.366       300.474       300.105       300.128       300.025       300.027       300.008       300.008       299.971       299.952       298.418       298.201       295.427       293.582       295.638       293.796       293.251       294.157       294.289       293.684       295.36        293.802       293.974       294.051       299.934       -1.79769e+307 300.06        -1.79769e+307 300.063       -1.79769e+307 300.068       -1.79769e+307 300.174       -1.79769e+307 299.864       -1.79769e+307 307.385       305.947       306.904       312.758       313.35        309.958       313.367       311.241       306.163       309.949       307.205       312.171       301.373       -1.79769e+307 300.488       -1.79769e+307 300.128       -1.79769e+307 300.065       -1.79769e+307 300.056       -1.79769e+307 299.965       -1.79769e+307 301.243       -1.79769e+307 300.473       -1.79769e+307 300.123       -1.79769e+307 300.067       -1.79769e+307 300.057       -1.79769e+307 300.017       -1.79769e+307 306.072       -1.79769e+307 303.632       -1.79769e+307 300.623       -1.79769e+307 300.11        -1.79769e+307 300.061       -1.79769e+307 299.706       -1.79769e+307 304.114       -1.79769e+307 301.859       -1.79769e+307 300.291       -1.79769e+307 300.076       -1.79769e+307 300.06        -1.79769e+307 299.858       -1.79769e+307 301.266       -1.79769e+307 300.373       -1.79769e+307 300.09        -1.79769e+307 300.063       -1.79769e+307 300.059       -1.79769e+307 300.038       -1.79769e+307
0.0009        302.108       302.608       300.911       301.217       300.46        300.594       300.166       300.202       300.04        300.046       300.01        300.01        299.959       299.942       298.339       298.105       295.636       294.242       295.836       294.525       293.747       294.767       294.623       294           295.589       294.573       294.403       294.473       299.905       -1.79769e+307 300.067       -1.79769e+307 300.071       -1.79769e+307 300.084       -1.79769e+307 300.237       -1.79769e+307 299.31        -1.79769e+307 307.693       306.189       307.151       313.316       313.679       310.284       314.222       311.893       306.484       310.379       307.694       312.871       301.459       -1.79769e+307 300.665       -1.79769e+307 300.191       -1.79769e+307 300.081       -1.79769e+307 300.063       -1.79769e+307 299.953       -1.79769e+307 301.389       -1.79769e+307 300.641       -1.79769e+307 300.185       -1.79769e+307 300.082       -1.79769e+307 300.064       -1.79769e+307 300.011       -1.79769e+307 304.596       -1.79769e+307 304.399       -1.79769e+307 300.971       -1.79769e+307 300.162       -1.79769e+307 300.071       -1.79769e+307 299.617       -1.79769e+307 302.827       -1.79769e+307 302.498       -1.79769e+307 300.485       -1.79769e+307 300.102       -1.79769e+307 300.068       -1.79769e+307 299.806       -1.79769e+307 301.438       -1.79769e+307 300.562       -1.79769e+307 300.13        -1.79769e+307 300.073       -1.79769e+307 300.066       -1.79769e+307 300.037       -1.79769e+307
0.001         302.29        302.904       300.88        301.081       300.522       300.665       300.238       300.29        300.065       300.075       300.014       300.014       299.932       299.912       298.266       298.029       295.644       294.551       295.825       294.89        293.844       295.019       294.796       294.191       295.577       294.935       294.61        294.655       299.874       -1.79769e+307 300.074       -1.79769e+307 300.079       -1.79769e+307 300.106       -1.79769e+307 300.277       -1.79769e+307 298.693       -1.79769e+307 307.885       306.289       307.335       313.803       313.919       310.549       314.913       312.43        306.679       310.638       308.036       313.366       301.481       -1.79769e+307 300.837       -1.79769e+307 300.274       -1.79769e+307 300.104       -1.79769e+307 300.072       -1.79769e+307 299.939       -1.79769e+307 301.498       -1.79769e+307 300.796       -1.79769e+307 300.27        -1.79769e+307 300.105       -1.79769e+307 300.072       -1.79769e+307 300.008       -1.79769e+307 303.077       -1.79769e+307 304.662       -1.79769e+307 301.42        -1.79769e+307 300.244       -1.79769e+307 300.085       -1.79769e+307 299.504       -1.79769e+307 301.363       -1.79769e+307 302.918       -1.79769e+307 300.751       -1.79769e+307 300.145       -1.79769e+307 300.077       -1.79769e+307 299.763       -1.79769e+307 301.58        -1.79769e+307 300.777       -1.79769e+307 300.193       -1.79769e+307 300.086       -1.79769e+307 300.073       -1.79769e+307 300.033       -1.79769e+307
0.0011        302.459       303.129       300.796       300.888       300.538       300.67        300.312       300.379       300.1         300.117       300.021       300.022       299.941       299.923       298.184       297.953       295.573       294.668       295.705       295.028       293.77        295.082       294.893       294.274       295.454       295.062       294.683       294.7         299.841       -1.79769e+307 300.081       -1.79769e+307 300.089       -1.79769e+307 300.137       -1.79769e+307 300.293       -1.79769e+307 298.094       -1.79769e+307 307.944       306.279       307.438       314.173       314.071       310.736       315.484       312.886       306.789       310.755       308.193       313.498       301.422       -1.79769e+307 301.001       -1.79769e+307 300.375       -1.79769e+307 300.137       -1.79769e+307 300.083       -1.79769e+307 299.923       -1.79769e+307 301.581       -1.79769e+307 300.922       -1.79769e+307 300.375       -1.79769e+307 300.137       -1.79769e+307 300.082       -1.79769e+307 300.003       -1.79769e+307 301.896       -1.79769e+307 304.753       -1.79769e+307 301.964       -1.79769e+307 300.368       -1.79769e+307 300.102       -1.79769e+307 299.411       -1.79769e+307 300.044       -1.79769e+307 303.046       -1.79769e+307 301.081       -1.79769e+307 300.213       -1.79769e+307 300.089       -1.79769e+307 299.713       -1.79769e+307 301.693       -1.79769e+307 300.999       -1.79769e+307 300.285       -1.79769e+307 300.104       -1.79769e+307 300.081       -1.79769e+307 300.029       -1.79769e+307
0.0012        302.607       303.314       300.678       300.676       300.507       300.605       300.373       300.454       300.145       300.17        300.032       300.033       299.914       299.906       298.109       297.881       295.487       294.702       295.563       295.073       293.687       295.093       294.867       294.245       295.315       295.105       294.771       294.774       299.81        -1.79769e+307 300.089       -1.79769e+307 300.101       -1.79769e+307 300.179       -1.79769e+307 300.286       -1.79769e+307 297.674       -1.79769e+307 308.058       306.402       307.507       314.43        314.149       310.89        315.918       313.216       306.852       310.794       308.486       314.038       301.285       -1.79769e+307 301.15        -1.79769e+307 300.486       -1.79769e+307 300.182       -1.79769e+307 300.097       -1.79769e+307 299.9         -1.79769e+307 301.638       -1.79769e+307 301.01        -1.79769e+307 300.495       -1.79769e+307 300.184       -1.79769e+307 300.094       -1.79769e+307 299.998       -1.79769e+307 301.076       -1.79769e+307 304.757       -1.79769e+307 302.563       -1.79769e+307 300.544       -1.79769e+307 300.128       -1.79769e+307 299.332       -1.79769e+307 299.02        -1.79769e+307 302.969       -1.79769e+307 301.459       -1.79769e+307 300.315       -1.79769e+307 300.105       -1.79769e+307 299.666       -1.79769e+307 301.775       -1.79769e+307 301.201       -1.79769e+307 300.408       -1.79769e+307 300.131       -1.79769e+307 300.09        -1.79769e+307 300.025       -1.79769e+307
0.0013        302.742       303.465       300.541       300.462       300.436       300.492       300.412       300.506       300.197       300.232       300.047       300.052       299.929       299.908       298.027       297.801       295.442       294.728       295.485       295.145       293.575       295.052       294.778       294.154       295.195       295.12        294.835       294.839       299.807       -1.79769e+307 300.097       -1.79769e+307 300.117       -1.79769e+307 300.235       -1.79769e+307 300.268       -1.79769e+307 297.437       -1.79769e+307 308.129       306.511       307.569       314.58        314.202       311.007       316.182       313.407       306.869       310.763       308.617       314.302       301.095       -1.79769e+307 301.173       -1.79769e+307 300.601       -1.79769e+307 300.24        -1.79769e+307 300.115       -1.79769e+307 299.868       -1.79769e+307 301.628       -1.79769e+307 301.049       -1.79769e+307 300.621       -1.79769e+307 300.245       -1.79769e+307 300.112       -1.79769e+307 299.996       -1.79769e+307 300.559       -1.79769e+307 304.707       -1.79769e+307 303.155       -1.79769e+307 300.781       -1.79769e+307 300.167       -1.79769e+307 299.263       -1.79769e+307 298.309       -1.79769e+307 302.746       -1.79769e+307 301.84        -1.79769e+307 300.456       -1.79769e+307 300.128       -1.79769e+307 299.626       -1.79769e+307 301.825       -1.79769e+307 301.36        -1.79769e+307 300.56        -1.79769e+307 300.17        -1.79769e+307 300.102       -1.79769e+307 300.025       -1.79769e+307
0.0014        302.86        303.58        300.397       300.255       300.339       300.355       300.427       300.513       300.253       300.299       300.069       300.077       299.908       299.909       297.963       297.737       295.516       294.865       295.519       295.312       293.74        295.172       294.82        294.141       295.23        295.29        294.747       294.746       299.792       -1.79769e+307 300.106       -1.79769e+307 300.138       -1.79769e+307 300.309       -1.79769e+307 300.233       -1.79769e+307 297.372       -1.79769e+307 308.174       306.599       307.617       314.651       314.224       311.082       316.367       313.53        306.862       310.692       308.526       314.033       300.888       -1.79769e+307 301.158       -1.79769e+307 300.719       -1.79769e+307 300.311       -1.79769e+307 300.14        -1.79769e+307 299.841       -1.79769e+307 301.561       -1.79769e+307 301.054       -1.79769e+307 300.746       -1.79769e+307 300.322       -1.79769e+307 300.135       -1.79769e+307 299.995       -1.79769e+307 300.332       -1.79769e+307 304.637       -1.79769e+307 303.724       -1.79769e+307 301.085       -1.79769e+307 300.226       -1.79769e+307 299.193       -1.79769e+307 297.935       -1.79769e+307 302.462       -1.79769e+307 302.167       -1.79769e+307 300.64        -1.79769e+307 300.163       -1.79769e+307 299.636       -1.79769e+307 301.836       -1.79769e+307 301.472       -1.79769e+307 300.731       -1.79769e+307 300.229       -1.79769e+307 300.117       -1.79769e+307 300.033       -1.79769e+307