# Probe 0 (0.58 0.002 0.176)
# Probe 1 (0.58 0 0.176)
# Probe 2 (0.599429 0.002 0.176)
# Probe 3 (0.599429 0 0.176)
# Probe 4 (0.618857 0.002 0.176)
# Probe 5 (0.618857 0 0.176)
# Probe 6 (0.638286 0.002 0.176)
# Probe 7 (0.638286 0 0.176)
# Probe 8 (0.657714 0.002 0.176)
# Probe 9 (0.657714 0 0.176)
# Probe 10 (0.677143 0.002 0.176)
# Probe 11 (0.677143 0 0.176)
# Probe 12 (0.696571 0.002 0.176)
# Probe 13 (0.696571 0 0.176)
# Probe 14 (0.716 0.002 0.176)
# Probe 15 (0.716 0 0.176)
# Probe 16 (0.716 0.002 0.146667)
# Probe 17 (0.716 0 0.146667)
# Probe 18 (0.716 0.002 0.117333)
# Probe 19 (0.716 0 0.117333)
# Probe 20 (0.716 0.002 0.088)
# Probe 21 (0.716 0 0.088)
# Probe 22 (0.716 0.002 0.0586667)
# Probe 23 (0.716 0 0.0586667)
# Probe 24 (0.716 0.002 0.0293333)
# Probe 25 (0.716 0 0.0293333)
# Probe 26 (0.716 0.002 0)
# Probe 27 (0.716 0 0)
# Probe 28 (0.685143 0.002 0)
# Probe 29 (0.685143 0 0)
# Probe 30 (0.654286 0.002 0)
# Probe 31 (0.654286 0 0)
# Probe 32 (0.623429 0.002 0)
# Probe 33 (0.623429 0 0)
# Probe 34 (0.592571 0.002 0)
# Probe 35 (0.592571 0 0)
# Probe 36 (0.561714 0.002 0)
# Probe 37 (0.561714 0 0)
# Probe 38 (0.530857 0.002 0)
# Probe 39 (0.530857 0 0)
# Probe 40 (0.5 0.002 0)
# Probe 41 (0.5 0 0)
# Probe 42 (0.513333 0.002 0.0293333)
# Probe 43 (0.513333 0 0.0293333)
# Probe 44 (0.526667 0.002 0.0586667)
# Probe 45 (0.526667 0 0.0586667)
# Probe 46 (0.54 0.002 0.088)
# Probe 47 (0.54 0 0.088)
# Probe 48 (0.553333 0.002 0.117333)
# Probe 49 (0.553333 0 0.117333)
# Probe 50 (0.566667 0.002 0.146667)
# Probe 51 (0.566667 0 0.146667)
# Probe 52 (0.588 0.002 0.146667)
# Probe 53 (0.588 0 0.146667)
# Probe 54 (0.609333 0.002 0.146667)
# Probe 55 (0.609333 0 0.146667)
# Probe 56 (0.630667 0.002 0.146667)
# Probe 57 (0.630667 0 0.146667)
# Probe 58 (0.652 0.002 0.146667)
# Probe 59 (0.652 0 0.146667)
# Probe 60 (0.673333 0.002 0.146667)
# Probe 61 (0.673333 0 0.146667)
# Probe 62 (0.694667 0.002 0.146667)
# Probe 63 (0.694667 0 0.146667)
# Probe 64 (0.576571 0.002 0.117333)
# Probe 65 (0.576571 0 0.117333)
# Probe 66 (0.59981 0.002 0.117333)
# Probe 67 (0.59981 0 0.117333)
# Probe 68 (0.623048 0.002 0.117333)
# Probe 69 (0.623048 0 0.117333)
# Probe 70 (0.646286 0.002 0.117333)
# Probe 71 (0.646286 0 0.117333)
# Probe 72 (0.669524 0.002 0.117333)
# Probe 73 (0.669524 0 0.117333)
# Probe 74 (0.692762 0.002 0.117333)
# Probe 75 (0.692762 0 0.117333)
# Probe 76 (0.565143 0.002 0.088)
# Probe 77 (0.565143 0 0.088)
# Probe 78 (0.590286 0.002 0.088)
# Probe 79 (0.590286 0 0.088)
# Probe 80 (0.615429 0.002 0.088)
# Probe 81 (0.615429 0 0.088)
# Probe 82 (0.640571 0.002 0.088)
# Probe 83 (0.640571 0 0.088)
# Probe 84 (0.665714 0.002 0.088)
# Probe 85 (0.665714 0 0.088)
# Probe 86 (0.690857 0.002 0.088)
# Probe 87 (0.690857 0 0.088)
# Probe 88 (0.553714 0.002 0.0586667)
# Probe 89 (0.553714 0 0.0586667)
# Probe 90 (0.580762 0.002 0.0586667)
# Probe 91 (0.580762 0 0.0586667)
# Probe 92 (0.60781 0.002 0.0586667)
# Probe 93 (0.60781 0 0.0586667)
# Probe 94 (0.634857 0.002 0.0586667)
# Probe 95 (0.634857 0 0.0586667)
# Probe 96 (0.661905 0.002 0.0586667)
# Probe 97 (0.661905 0 0.0586667)
# Probe 98 (0.688952 0.002 0.0586667)
# Probe 99 (0.688952 0 0.0586667)
# Probe 100 (0.542286 0.002 0.0293333)
# Probe 101 (0.542286 0 0.0293333)
# Probe 102 (0.571238 0.002 0.0293333)
# Probe 103 (0.571238 0 0.0293333)
# Probe 104 (0.60019 0.002 0.0293333)
# Probe 105 (0.60019 0 0.0293333)
# Probe 106 (0.629143 0.002 0.0293333)
# Probe 107 (0.629143 0 0.0293333)
# Probe 108 (0.658095 0.002 0.0293333)
# Probe 109 (0.658095 0 0.0293333)
# Probe 110 (0.687048 0.002 0.0293333)
# Probe 111 (0.687048 0 0.0293333)
# Time        0             1             2             3             4             5             6             7             8             9             10            11            12            13            14            15            16            17            18            19            20            21            22            23            24            25            26            27            28            29            30            31            32            33            34            35            36            37            38            39            40            41            42            43            44            45            46            47            48            49            50            51            52            53            54            55            56            57            58            59            60            61            62            63            64            65            66            67            68            69            70            71            72            73            74            75            76            77            78            79            80            81            82            83            84            85            86            87            88            89            90            91            92            93            94            95            96            97            98            99            100           101           102           103           104           105           106           107           108           109           110           111          
0             (281.34 0 0)  (296.525 0 0) (264.096 0 0) (242.228 0 0) (264.012 0 0) (242.502 0 0) (264.073 0 0) (242.434 0 0) (271.261 0 0) (276.555 0 0) (314.69 0 0)  (319.989 0 0) (355.041 0 0) (363.376 0 0) (275.198 0 0) (265.931 0 0) (152.412 0 0) (126.079 0 0) (150.791 0 0) (127.408 0 0) (231.039 0 0) (95.4367 0 0) (244.988 0 0) (86.1931 0 0) (151.763 0 0) (126.651 0 0) (300.376 0 0) (269.086 0 0) (320.28 0 0)  (-1.79769e+307 -1.79769e+307 -1.79769e+307) (320.42 0 0)  (-1.79769e+307 -1.79769e+307 -1.79769e+307) (316.108 0 0) (-1.79769e+307 -1.79769e+307 -1.79769e+307) (304.239 0 0) (-1.79769e+307 -1.79769e+307 -1.79769e+307) (292.938 0 0) (-1.79769e+307 -1.79769e+307 -1.79769e+307) (281.711 0 0) (-1.79769e+307 -1.79769e+307 -1.79769e+307) (347.22 0 0)  (296.223 0 0) (212.954 0 0) (217.168 0 0) (350.178 0 0) (125.706 0 0) (283.796 0 0) (189.922 0 0) (214.362 0 0) (77.9652 0 0) (393.981 0 0) (391.98 0 0)  (221.163 0 0) (-1.79769e+307 -1.79769e+307 -1.79769e+307) (227.019 0 0) (-1.79769e+307 -1.79769e+307 -1.79769e+307) (227.197 0 0) (-1.79769e+307 -1.79769e+307 -1.79769e+307) (227.024 0 0) (-1.79769e+307 -1.79769e+307 -1.79769e+307) (227.005 0 0) (-1.79769e+307 -1.79769e+307 -1.79769e+307) (225.224 0 0) (-1.79769e+307 -1.79769e+307 -1.79769e+307) (213.098 0 0) (-1.79769e+307 -1.79769e+307 -1.79769e+307) (204.53 0 0)  (-1.79769e+307 -1.79769e+307 -1.79769e+307) (229.169 0 0) (-1.79769e+307 -1.79769e+307 -1.79769e+307) (227.836 0 0) (-1.79769e+307 -1.79769e+307 -1.79769e+307) (204.508 0 0) (-1.79769e+307 -1.79769e+307 -1.79769e+307) (204.1 0 0)   (-1.79769e+307 -1.79769e+307 -1.79769e+307) (225.526 0 0) (-1.79769e+307 -1.79769e+307 -1.79769e+307) (227.675 0 0) (-1.79769e+307 -1.79769e+307 -1.79769e+307) (227.693 0 0) (-1.79769e+307 -1.79769e+307 -1.79769e+307) (227.69 0 0)  (-1.79769e+307 -1.79769e+307 -1.79769e+307) (227.685 0 0) (-1.79769e+307 -1.79769e+307 -1.79769e+307) (227.131 0 0) (-1.79769e+307 -1.79769e+307 -1.79769e+307) (225.699 0 0) (-1.79769e+307 -1.79769e+307 -1.79769e+307) (227.682 0 0) (-1.79769e+307 -1.79769e+307 -1.79769e+307) (227.694 0 0) (-1.79769e+307 -1.79769e+307 -1.79769e+307) (227.7 0 0)   (-1.79769e+307 -1.79769e+307 -1.79769e+307) (227.686 0 0) (-1.79769e+307 -1.79769e+307 -1.79769e+307) (227.169 0 0) (-1.79769e+307 -1.79769e+307 -1.79769e+307) (227 0 0)     (-1.79769e+307 -1.79769e+307 -1.79769e+307) (227.682 0 0) (-1.79769e+307 -1.79769e+307 -1.79769e+307) (227.801 0 0) (-1.79769e+307 -1.79769e+307 -1.79769e+307) (229.772 0 0) (-1.79769e+307 -1.79769e+307 -1.79769e+307) (227.701 0 0) (-1.79769e+307 -1.79769e+307 -1.79769e+307) (227.448 0 0) (-1.79769e+307 -1.79769e+307 -1.79769e+307)
0.0001        (281.354 -0.0780544 0.286785) (296.517 0.111255 0.427786) (264.099 4.94446e-05 0.00224943) (242.23 0.00101611 0.00268361) (264.012 -4.9648e-06 4.06161e-05) (242.502 1.91087e-05 5.2036e-05) (264.073 -9.27868e-06 2.0194e-05) (242.434 5.29562e-06 1.67494e-05) (271.26 -7.27528e-06 1.76816e-05) (276.555 4.68722e-06 1.86807e-05) (314.689 1.37319e-05 4.4601e-05) (319.989 4.08266e-05 8.02594e-05) (355.037 0.00274697 0.00434931) (363.369 0.0040698 0.00727058) (275.246 0.0904234 -0.290368) (265.974 -0.0822075 -0.362517) (152.384 -0.120919 -0.461072) (125.405 0.0831231 0.304686) (150.772 -0.0967044 -0.0399734) (126.713 0.0811589 0.0434849) (231.071 -1.60185 0.176298) (94.8052 0.0291554 0.0219835) (244.954 -0.722533 0.865944) (85.7721 -0.022541 -0.0470551) (151.747 -0.102992 -0.00318201) (125.955 0.0810519 -0.00183467) (300.122 -0.709274 0) (268.848 -0.188191 0) (320.254 0.00285753 0) (-1.79769e+307 -1.79769e+307 -1.79769e+307) (320.405 5.57481e-05 0) (-1.79769e+307 -1.79769e+307 -1.79769e+307) (316.093 7.23515e-05 0) (-1.79769e+307 -1.79769e+307 -1.79769e+307) (304.225 7.58542e-05 0) (-1.79769e+307 -1.79769e+307 -1.79769e+307) (292.926 6.24249e-05 0) (-1.79769e+307 -1.79769e+307 -1.79769e+307) (281.713 0.000201508 0) (-1.79769e+307 -1.79769e+307 -1.79769e+307) (345.675 -0.856356 0) (295.687 -0.0695855 0) (212.668 0.296991 0.068088) (215.527 1.13331 0.0510994) (347.882 -0.651769 1.82688) (125.177 -0.347293 -0.0456592) (281.852 -1.23416 0.935785) (188.861 -0.671591 0.446342) (214.273 0.173457 0.15338) (77.4959 0.322975 0.213988) (392.932 0.499975 1.00812) (389.697 1.34498 0.895105) (221.158 0.000206863 0.00422181) (-1.79769e+307 -1.79769e+307 -1.79769e+307) (227.009 5.25594e-05 1.07159e-05) (-1.79769e+307 -1.79769e+307 -1.79769e+307) (227.186 4.53156e-05 5.31336e-06) (-1.79769e+307 -1.79769e+307 -1.79769e+307) (227.013 3.45206e-05 3.63547e-06) (-1.79769e+307 -1.79769e+307 -1.79769e+307) (226.995 3.79915e-05 -8.6032e-06) (-1.79769e+307 -1.79769e+307 -1.79769e+307) (225.211 0.00293873 0.00724999) (-1.79769e+307 -1.79769e+307 -1.79769e+307) (213.096 0.000704278 -0.004605) (-1.79769e+307 -1.79769e+307 -1.79769e+307) (204.521 5.34847e-05 -9.46043e-06) (-1.79769e+307 -1.79769e+307 -1.79769e+307) (229.157 7.62722e-05 9.6021e-07) (-1.79769e+307 -1.79769e+307 -1.79769e+307) (227.824 6.54806e-05 -5.3789e-06) (-1.79769e+307 -1.79769e+307 -1.79769e+307) (204.499 3.36661e-05 4.11661e-07) (-1.79769e+307 -1.79769e+307 -1.79769e+307) (204.09 0.000302459 0.000905041) (-1.79769e+307 -1.79769e+307 -1.79769e+307) (225.742 0.0378353 -0.0224165) (-1.79769e+307 -1.79769e+307 -1.79769e+307) (227.664 -0.000106096 3.48582e-05) (-1.79769e+307 -1.79769e+307 -1.79769e+307) (227.682 6.32606e-05 1.19049e-06) (-1.79769e+307 -1.79769e+307 -1.79769e+307) (227.679 5.44999e-05 2.02029e-06) (-1.79769e+307 -1.79769e+307 -1.79769e+307) (227.674 5.75652e-05 8.89205e-07) (-1.79769e+307 -1.79769e+307 -1.79769e+307) (227.095 0.0103158 -0.000658395) (-1.79769e+307 -1.79769e+307 -1.79769e+307) (225.842 0.0233552 -0.049151) (-1.79769e+307 -1.79769e+307 -1.79769e+307) (227.671 -1.82043e-06 -7.00501e-05) (-1.79769e+307 -1.79769e+307 -1.79769e+307) (227.683 5.9902e-05 -1.86603e-06) (-1.79769e+307 -1.79769e+307 -1.79769e+307) (227.688 5.32485e-05 -9.53372e-07) (-1.79769e+307 -1.79769e+307 -1.79769e+307) (227.675 5.17791e-05 -2.84222e-06) (-1.79769e+307 -1.79769e+307 -1.79769e+307) (227.143 0.00560495 -0.00209242) (-1.79769e+307 -1.79769e+307 -1.79769e+307) (226.993 0.000393561 -0.00379038) (-1.79769e+307 -1.79769e+307 -1.79769e+307) (227.672 4.63593e-05 -1.70175e-06) (-1.79769e+307 -1.79769e+307 -1.79769e+307) (227.791 5.57532e-05 -7.885e-07) (-1.79769e+307 -1.79769e+307 -1.79769e+307) (229.761 5.3531e-05 -2.6314e-06) (-1.79769e+307 -1.79769e+307 -1.79769e+307) (227.691 3.7891e-05 5.92294e-07) (-1.79769e+307 -1.79769e+307 -1.79769e+307) (227.438 0.000188476 -5.32021e-06) (-1.79769e+307 -1.79769e+307 -1.79769e+307)
0.0002        (281.334 -0.15722 0.684278) (296.46 0.280271 1.01642) (264.114 0.00679323 0.01908) (242.255 0.0150821 0.0338843) (264.013 0.000178187 0.000536784) (242.502 0.000417652 0.000882315) (264.073 -7.47823e-05 0.000196497) (242.434 5.61661e-05 0.000177221) (271.26 -7.75362e-05 0.000188342) (276.555 3.92295e-05 0.000186403) (314.689 -7.65572e-06 0.000236572) (319.989 0.000100962 0.000298402) (355.04 0.00382752 0.0069855) (363.373 0.00597355 0.0109348) (275.313 0.186906 -0.681689) (266.036 -0.178307 -0.796624) (152.402 -0.409664 -1.0705) (124.726 0.317874 0.801031) (150.787 -0.373247 -0.0859686) (126.027 0.312802 0.104542) (231.627 -3.92493 0.420458) (94.0963 -0.0745953 0.0489798) (245.339 -1.75146 2.02535) (85.2785 -0.00187641 -0.136877) (151.765 -0.384362 -0.00578688) (125.265 0.317194 -0.00128764) (300.203 -1.78256 0) (268.868 -0.410321 0) (320.237 0.00407121 0) (-1.79769e+307 -1.79769e+307 -1.79769e+307) (320.389 0.000632327 0) (-1.79769e+307 -1.79769e+307 -1.79769e+307) (316.078 0.00067368 0) (-1.79769e+307 -1.79769e+307 -1.79769e+307) (304.21 0.00071426 0) (-1.79769e+307 -1.79769e+307 -1.79769e+307) (292.914 0.000771527 0) (-1.79769e+307 -1.79769e+307 -1.79769e+307) (281.834 0.0559659 0) (-1.79769e+307 -1.79769e+307 -1.79769e+307) (343.478 -1.8158 0) (294.732 -0.201746 0) (212.278 0.521986 0.118302) (213.032 2.53978 0.30879) (344.291 -1.46134 4.00612) (124.312 -0.769609 0.0113359) (278.779 -2.62769 2.36323) (187.122 -1.50536 1.16681) (214.084 0.316881 0.368617) (76.7783 0.664363 0.536602) (391.342 0.819348 2.44159) (386.219 2.69628 2.22574) (221.169 0.004316 0.0282396) (-1.79769e+307 -1.79769e+307 -1.79769e+307) (226.999 0.00046507 0.000264123) (-1.79769e+307 -1.79769e+307 -1.79769e+307) (227.176 0.000456985 2.55177e-05) (-1.79769e+307 -1.79769e+307 -1.79769e+307) (227.003 0.000411051 1.0705e-05) (-1.79769e+307 -1.79769e+307 -1.79769e+307) (226.985 0.000392704 3.18259e-05) (-1.79769e+307 -1.79769e+307 -1.79769e+307) (225.208 0.0027727 0.0104909) (-1.79769e+307 -1.79769e+307 -1.79769e+307) (213.146 0.0284859 -0.028555) (-1.79769e+307 -1.79769e+307 -1.79769e+307) (204.514 0.000822068 -0.000607084) (-1.79769e+307 -1.79769e+307 -1.79769e+307) (229.147 0.000509994 -9.08971e-06) (-1.79769e+307 -1.79769e+307 -1.79769e+307) (227.814 0.000443596 -3.46356e-06) (-1.79769e+307 -1.79769e+307 -1.79769e+307) (204.491 0.000352668 7.4117e-06) (-1.79769e+307 -1.79769e+307 -1.79769e+307) (204.082 0.000686599 0.0012138) (-1.79769e+307 -1.79769e+307 -1.79769e+307) (226.489 0.344594 -0.0768929) (-1.79769e+307 -1.79769e+307 -1.79769e+307) (227.67 0.00515326 -0.00156377) (-1.79769e+307 -1.79769e+307 -1.79769e+307) (227.671 0.000558645 -7.57007e-06) (-1.79769e+307 -1.79769e+307 -1.79769e+307) (227.668 0.000490489 1.51472e-05) (-1.79769e+307 -1.79769e+307 -1.79769e+307) (227.663 0.000444084 5.39951e-06) (-1.79769e+307 -1.79769e+307 -1.79769e+307) (227.077 0.00808041 1.09095e-05) (-1.79769e+307 -1.79769e+307 -1.79769e+307) (226.518 0.305303 -0.330052) (-1.79769e+307 -1.79769e+307 -1.79769e+307) (227.67 0.00296047 -0.00350617) (-1.79769e+307 -1.79769e+307 -1.79769e+307) (227.671 0.000523287 -1.72657e-05) (-1.79769e+307 -1.79769e+307 -1.79769e+307) (227.677 0.000498795 -5.30503e-06) (-1.79769e+307 -1.79769e+307 -1.79769e+307) (227.664 0.00046049 -2.76661e-06) (-1.79769e+307 -1.79769e+307 -1.79769e+307) (227.128 0.0053483 -0.00210086) (-1.79769e+307 -1.79769e+307 -1.79769e+307) (226.993 0.0052418 -0.0312963) (-1.79769e+307 -1.79769e+307 -1.79769e+307) (227.661 0.000457997 -8.75036e-05) (-1.79769e+307 -1.79769e+307 -1.79769e+307) (227.779 0.000506742 4.46369e-06) (-1.79769e+307 -1.79769e+307 -1.79769e+307) (229.75 0.000487557 9.23907e-06) (-1.79769e+307 -1.79769e+307 -1.79769e+307) (227.681 0.000398326 2.78613e-06) (-1.79769e+307 -1.79769e+307 -1.79769e+307) (227.428 0.000594466 -2.73682e-05) (-1.79769e+307 -1.79769e+307 -1.79769e+307)
0.0003        (281.25 -0.199339 1.09544) (296.31 0.50492 1.68907) (264.161 0.0413601 0.0798509) (242.328 0.065201 0.14378) (264.016 0.00223949 0.00300273) (242.507 0.00298876 0.00580778) (264.073 -0.000110488 0.000555293) (242.434 0.000192916 0.000544879) (271.26 -0.000171755 0.000480466) (276.555 9.75168e-05 0.000485625) (314.689 -5.18808e-05 0.000559777) (319.988 0.000163516 0.000631399) (355.046 0.00423561 0.00720344) (363.38 0.0059738 0.0106693) (275.412 0.24088 -1.09067) (266.141 -0.286334 -1.25282) (152.474 -0.874315 -1.71229) (124.453 0.811046 1.38313) (150.845 -0.822837 -0.146289) (125.757 0.801256 0.187152) (233.001 -6.63806 0.674067) (93.6131 -0.369478 0.0733318) (246.34 -3.13033 3.1632) (84.9189 0.104343 -0.249712) (151.83 -0.830046 -0.00298313) (124.987 0.817491 -0.00295297) (300.919 -3.12028 0) (269.437 -0.701268 0) (320.227 0.0056557 0) (-1.79769e+307 -1.79769e+307 -1.79769e+307) (320.374 0.00156582 0) (-1.79769e+307 -1.79769e+307 -1.79769e+307) (316.062 0.00163604 0) (-1.79769e+307 -1.79769e+307 -1.79769e+307) (304.196 0.00173853 0) (-1.79769e+307 -1.79769e+307 -1.79769e+307) (292.906 0.00305948 0) (-1.79769e+307 -1.79769e+307 -1.79769e+307) (282.148 0.210971 0) (-1.79769e+307 -1.79769e+307 -1.79769e+307) (341.006 -2.85438 0) (293.627 -0.379167 0) (211.831 0.728318 0.206832) (210.199 4.1575 0.564692) (340.081 -2.54476 6.27699) (123.388 -1.20524 0.00706904) (275.299 -4.23583 3.95893) (185.181 -2.44445 1.97217) (213.784 0.393621 0.607209) (75.9899 1.03261 0.891759) (389.51 1.07317 3.99061) (382.361 4.1377 3.71368) (221.215 0.0134799 0.125547) (-1.79769e+307 -1.79769e+307 -1.79769e+307) (226.991 0.00152614 0.00222425) (-1.79769e+307 -1.79769e+307 -1.79769e+307) (227.165 0.00113825 0.000105014) (-1.79769e+307 -1.79769e+307 -1.79769e+307) (226.992 0.00103832 9.3182e-06) (-1.79769e+307 -1.79769e+307 -1.79769e+307) (226.975 0.000992898 9.37301e-05) (-1.79769e+307 -1.79769e+307 -1.79769e+307) (225.206 0.00258927 0.0112936) (-1.79769e+307 -1.79769e+307 -1.79769e+307) (213.269 0.0984272 -0.0836769) (-1.79769e+307 -1.79769e+307 -1.79769e+307) (204.513 0.00423055 -0.00407692) (-1.79769e+307 -1.79769e+307 -1.79769e+307) (229.136 0.00126719 -9.95767e-05) (-1.79769e+307 -1.79769e+307 -1.79769e+307) (227.803 0.00106744 -7.07529e-06) (-1.79769e+307 -1.79769e+307 -1.79769e+307) (204.482 0.000886521 2.61069e-05) (-1.79769e+307 -1.79769e+307 -1.79769e+307) (204.074 0.00123731 0.0012148) (-1.79769e+307 -1.79769e+307 -1.79769e+307) (227.752 0.876708 -0.115802) (-1.79769e+307 -1.79769e+307 -1.79769e+307) (227.723 0.0275591 -0.00720157) (-1.79769e+307 -1.79769e+307 -1.79769e+307) (227.661 0.00174042 -0.000153373) (-1.79769e+307 -1.79769e+307 -1.79769e+307) (227.657 0.00121713 2.94048e-05) (-1.79769e+307 -1.79769e+307 -1.79769e+307) (227.652 0.00108473 1.03924e-05) (-1.79769e+307 -1.79769e+307 -1.79769e+307) (227.064 0.00257006 0.000624223) (-1.79769e+307 -1.79769e+307 -1.79769e+307) (227.736 0.897652 -0.904465) (-1.79769e+307 -1.79769e+307 -1.79769e+307) (227.705 0.0188164 -0.0223497) (-1.79769e+307 -1.79769e+307 -1.79769e+307) (227.66 0.00143556 -0.000252584) (-1.79769e+307 -1.79769e+307 -1.79769e+307) (227.665 0.00122609 -2.40656e-05) (-1.79769e+307 -1.79769e+307 -1.79769e+307) (227.653 0.00113384 -3.34846e-06) (-1.79769e+307 -1.79769e+307 -1.79769e+307) (227.116 0.00254257 0.000593828) (-1.79769e+307 -1.79769e+307 -1.79769e+307) (227.009 0.0216557 -0.12343) (-1.79769e+307 -1.79769e+307 -1.79769e+307) (227.65 0.00127746 -0.000859578) (-1.79769e+307 -1.79769e+307 -1.79769e+307) (227.769 0.00123414 1.30277e-05) (-1.79769e+307 -1.79769e+307 -1.79769e+307) (229.738 0.00118957 1.82461e-05) (-1.79769e+307 -1.79769e+307 -1.79769e+307) (227.67 0.000985223 1.56794e-06) (-1.79769e+307 -1.79769e+307 -1.79769e+307) (227.418 0.00119325 -1.9961e-05) (-1.79769e+307 -1.79769e+307 -1.79769e+307)
0.0004        (281.1 -0.184426 1.45638) (296.058 0.761821 2.34166) (264.242 0.141927 0.201131) (242.457 0.166118 0.361978) (264.027 0.0112175 0.0105619) (242.525 0.0119702 0.0223334) (264.074 0.000221206 0.00131998) (242.435 0.000701719 0.00159087) (271.26 -0.000243359 0.000873079) (276.555 0.000182839 0.000903152) (314.689 -8.5545e-05 0.000960466) (319.988 0.000218939 0.00102479) (355.055 0.0035832 0.0057299) (363.393 0.00423186 0.00740289) (275.533 0.232673 -1.44836) (266.298 -0.40307 -1.65096) (152.597 -1.42952 -2.29157) (124.579 1.44088 1.92498) (150.95 -1.37138 -0.217117) (125.89 1.42846 0.277572) (234.778 -9.13006 0.882896) (93.4175 -0.789953 0.0876905) (247.67 -4.54083 4.08682) (84.7582 0.274705 -0.362603) (151.947 -1.36869 0.00126945) (125.109 1.46181 -0.00415178) (302.012 -4.37875 0) (270.359 -0.979074 0) (320.223 0.00640961 0) (-1.79769e+307 -1.79769e+307 -1.79769e+307) (320.358 0.00261404 0) (-1.79769e+307 -1.79769e+307 -1.79769e+307) (316.047 0.00273609 0) (-1.79769e+307 -1.79769e+307 -1.79769e+307) (304.182 0.00297766 0) (-1.79769e+307 -1.79769e+307 -1.79769e+307) (292.908 0.00942437 0) (-1.79769e+307 -1.79769e+307 -1.79769e+307) (282.643 0.47784 0) (-1.79769e+307 -1.79769e+307 -1.79769e+307) (338.707 -3.75363 0) (292.552 -0.57369 0) (211.39 0.955496 0.336459) (207.47 5.70918 0.834834) (335.967 -3.61125 8.23014) (122.533 -1.57945 -0.0353746) (271.98 -5.74347 5.4889) (183.335 -3.33123 2.75158) (213.427 0.467535 0.826705) (75.2485 1.37678 1.22501) (387.699 1.34473 5.39041) (378.737 5.44156 5.11063) (221.299 0.0216353 0.339168) (-1.79769e+307 -1.79769e+307 -1.79769e+307) (226.988 0.0035824 0.00761537) (-1.79769e+307 -1.79769e+307 -1.79769e+307) (227.155 0.0020205 0.000439432) (-1.79769e+307 -1.79769e+307 -1.79769e+307) (226.982 0.00177776 1.06955e-05) (-1.79769e+307 -1.79769e+307 -1.79769e+307) (226.965 0.0017095 0.00016339) (-1.79769e+307 -1.79769e+307 -1.79769e+307) (225.208 0.00202187 0.00647507) (-1.79769e+307 -1.79769e+307 -1.79769e+307) (213.454 0.211282 -0.171284) (-1.79769e+307 -1.79769e+307 -1.79769e+307) (204.528 0.0135352 -0.0148533) (-1.79769e+307 -1.79769e+307 -1.79769e+307) (229.126 0.00240041 -0.000640676) (-1.79769e+307 -1.79769e+307 -1.79769e+307) (227.792 0.00179611 -2.84368e-05) (-1.79769e+307 -1.79769e+307 -1.79769e+307) (204.473 0.00152219 5.34335e-05) (-1.79769e+307 -1.79769e+307 -1.79769e+307) (204.066 0.00175891 0.000848441) (-1.79769e+307 -1.79769e+307 -1.79769e+307) (229.262 1.52929 -0.0733488) (-1.79769e+307 -1.79769e+307 -1.79769e+307) (227.857 0.0793961 -0.0163272) (-1.79769e+307 -1.79769e+307 -1.79769e+307) (227.657 0.00456484 -0.00072194) (-1.79769e+307 -1.79769e+307 -1.79769e+307) (227.646 0.0020928 2.79577e-05) (-1.79769e+307 -1.79769e+307 -1.79769e+307) (227.641 0.00182716 1.0624e-05) (-1.79769e+307 -1.79769e+307 -1.79769e+307) (227.066 -0.00465951 0.00102549) (-1.79769e+307 -1.79769e+307 -1.79769e+307) (229.232 1.72387 -1.70845) (-1.79769e+307 -1.79769e+307 -1.79769e+307) (227.814 0.0631754 -0.0770483) (-1.79769e+307 -1.79769e+307 -1.79769e+307) (227.652 0.00315282 -0.00150984) (-1.79769e+307 -1.79769e+307 -1.79769e+307) (227.654 0.00208001 -7.64629e-05) (-1.79769e+307 -1.79769e+307 -1.79769e+307) (227.642 0.00191341 -5.10611e-06) (-1.79769e+307 -1.79769e+307 -1.79769e+307) (227.114 -0.00201681 0.00288448) (-1.79769e+307 -1.79769e+307 -1.79769e+307) (227.038 0.0571679 -0.314318) (-1.79769e+307 -1.79769e+307 -1.79769e+307) (227.642 0.00268206 -0.00521357) (-1.79769e+307 -1.79769e+307 -1.79769e+307) (227.758 0.00206818 -1.38191e-05) (-1.79769e+307 -1.79769e+307 -1.79769e+307) (229.727 0.00197928 2.4977e-05) (-1.79769e+307 -1.79769e+307 -1.79769e+307) (227.66 0.00166423 -6.83158e-06) (-1.79769e+307 -1.79769e+307 -1.79769e+307) (227.408 0.00186927 -7.47674e-06) (-1.79769e+307 -1.79769e+307 -1.79769e+307)
0.0005        (280.898 -0.116784 1.76041) (295.716 1.03311 2.93741) (264.346 0.346448 0.376757) (242.63 0.311391 0.67705) (264.054 0.0379122 0.0282615) (242.568 0.0336245 0.0616654) (264.076 0.00205671 0.00309748) (242.438 0.00243573 0.00461619) (271.261 -0.000202683 0.00136115) (276.555 0.000350003 0.00147003) (314.689 -0.000104708 0.00137784) (319.988 0.000236226 0.00139275) (355.069 0.00173817 0.00361146) (363.412 0.00172571 0.0033124) (275.7 0.209536 -1.70481) (266.512 -0.49331 -1.91561) (152.755 -1.98554 -2.76724) (124.955 2.07819 2.3689) (151.092 -1.9171 -0.291539) (126.275 2.07087 0.362619) (236.532 -11.0604 1.03068) (93.44 -1.23578 0.0885567) (249.068 -5.78757 4.76995) (84.7687 0.475159 -0.461204) (152.11 -1.90143 0.00646629) (125.473 2.12155 -0.0068223) (303.235 -5.44708 0) (271.407 -1.20864 0) (320.223 0.00606446 0) (-1.79769e+307 -1.79769e+307 -1.79769e+307) (320.343 0.00359858 0) (-1.79769e+307 -1.79769e+307 -1.79769e+307) (316.032 0.00381145 0) (-1.79769e+307 -1.79769e+307 -1.79769e+307) (304.169 0.00439445 0) (-1.79769e+307 -1.79769e+307 -1.79769e+307) (292.931 0.0235237 0) (-1.79769e+307 -1.79769e+307 -1.79769e+307) (283.219 0.81669 0) (-1.79769e+307 -1.79769e+307 -1.79769e+307) (336.761 -4.43016 0) (291.588 -0.758684 0) (210.981 1.21684 0.503373) (205.067 7.06411 1.1036) (332.322 -4.48963 9.73303) (121.795 -1.8649 -0.0948473) (269.047 -7.01283 6.85546) (181.696 -4.09934 3.45707) (213.055 0.575256 1.02168) (74.6067 1.67306 1.51948) (386.036 1.64632 6.5562) (375.622 6.51927 6.33794) (221.414 0.0232412 0.65797) (-1.79769e+307 -1.79769e+307 -1.79769e+307) (226.995 0.00740779 0.0190412) (-1.79769e+307 -1.79769e+307 -1.79769e+307) (227.146 0.00310229 0.00173291) (-1.79769e+307 -1.79769e+307 -1.79769e+307) (226.972 0.00252114 5.70751e-05) (-1.79769e+307 -1.79769e+307 -1.79769e+307) (226.955 0.00242689 0.000226543) (-1.79769e+307 -1.79769e+307 -1.79769e+307) (225.214 0.0010579 -0.000646026) (-1.79769e+307 -1.79769e+307 -1.79769e+307) (213.672 0.353085 -0.277032) (-1.79769e+307 -1.79769e+307 -1.79769e+307) (204.565 0.0321174 -0.038235) (-1.79769e+307 -1.79769e+307 -1.79769e+307) (229.12 0.00431007 -0.00262309) (-1.79769e+307 -1.79769e+307 -1.79769e+307) (227.782 0.00252619 -8.97493e-05) (-1.79769e+307 -1.79769e+307 -1.79769e+307) (204.465 0.00215999 7.98267e-05) (-1.79769e+307 -1.79769e+307 -1.79769e+307) (204.06 0.00201096 3.36945e-05) (-1.79769e+307 -1.79769e+307 -1.79769e+307) (230.661 2.10511 0.0858413) (-1.79769e+307 -1.79769e+307 -1.79769e+307) (228.086 0.162825 -0.0243882) (-1.79769e+307 -1.79769e+307 -1.79769e+307) (227.663 0.0107152 -0.00198581) (-1.79769e+307 -1.79769e+307 -1.79769e+307) (227.635 0.00308722 -2.23818e-05) (-1.79769e+307 -1.79769e+307 -1.79769e+307) (227.63 0.00253916 5.27871e-06) (-1.79769e+307 -1.79769e+307 -1.79769e+307) (227.072 -0.0122479 0.0016136) (-1.79769e+307 -1.79769e+307 -1.79769e+307) (230.696 2.61531 -2.63608) (-1.79769e+307 -1.79769e+307 -1.79769e+307) (228.029 0.14872 -0.188104) (-1.79769e+307 -1.79769e+307 -1.79769e+307) (227.651 0.00680404 -0.00592389) (-1.79769e+307 -1.79769e+307 -1.79769e+307) (227.643 0.00296021 -0.00023657) (-1.79769e+307 -1.79769e+307 -1.79769e+307) (227.631 0.00266309 -8.58193e-06) (-1.79769e+307 -1.79769e+307 -1.79769e+307) (227.115 -0.00671306 0.00493929) (-1.79769e+307 -1.79769e+307 -1.79769e+307) (227.075 0.115353 -0.612868) (-1.79769e+307 -1.79769e+307 -1.79769e+307) (227.64 0.00525028 -0.0187996) (-1.79769e+307 -1.79769e+307 -1.79769e+307) (227.746 0.00289596 -0.00027062) (-1.79769e+307 -1.79769e+307 -1.79769e+307) (229.716 0.00274019 2.49209e-05) (-1.79769e+307 -1.79769e+307 -1.79769e+307) (227.649 0.00232917 -2.02678e-05) (-1.79769e+307 -1.79769e+307 -1.79769e+307) (227.399 0.00243408 7.23807e-06) (-1.79769e+307 -1.79769e+307 -1.79769e+307)